# vtk DataFile Version 2.0
one liner comment goes here
ASCII
DATASET STRUCTURED_POINTS
DIMENSIONS 80 60 40
ORIGIN 0 0 0
SPACING 1 1 1
POINT_DATA 192000
SCALARS anyoldnameforthisvolume float
LOOKUP_TABLE default
0.876944 0.875983 0.874961 0.873859 0.872663 0.871354 0.869921 0.868356 0.866665 0.864868 0.863007 0.861150 0.859381 0.857787 0.856436 0.855357 0.854531 0.853907 0.853413 0.852981 0.852550 0.852077 0.851530 0.850888 0.850137 0.849269 0.848276 0.847156 0.845902 0.844512 0.842980 0.841304 0.839478 0.837500 0.835367 0.833082 0.830653 0.828095 0.825440 0.822735 0.820050 0.817485 0.815164 0.813233 0.811841 0.811118 0.811149 0.811953 0.813483 0.815635 0.818280 0.821281 0.824515 0.827882 0.831305 0.834727 0.838111 0.841433 0.844677 0.847835 0.850904 0.853882 0.856770 0.859571 0.862286 0.864918 0.867470 0.869945 0.872344 0.874673 0.876931 0.879123 0.881250 0.883314 0.885319 0.887266 0.889157 0.890995 0.892781 0.894517 0.874775 0.873796 0.872770 0.871683 0.870519 0.869263 0.867903 0.866428 0.864840 0.863148 0.861383 0.859592 0.857845 0.856218 0.854783 0.853585 0.852632 0.851892 0.851310 0.850820 0.850358 0.849874 0.849329 0.848694 0.847953 0.847091 0.846103 0.844980 0.843721 0.842320 0.840774 0.839080 0.837236 0.835240 0.833091 0.830792 0.828353 0.825789 0.823128 0.820415 0.817712 0.815109 0.812716 0.810667 0.809103 0.808154 0.807917 0.808435 0.809689 0.811605 0.814069 0.816954 0.820136 0.823508 0.826982 0.830493 0.833993 0.837450 0.840841 0.844154 0.847380 0.850515 0.853558 0.856509 0.859370 0.862142 0.864828 0.867430 0.869951 0.872394 0.874762 0.877056 0.879280 0.881436 0.883527 0.885555 0.887523 0.889432 0.891286 0.893087 0.872599 0.871592 0.870551 0.869465 0.868318 0.867097 0.865791 0.864388 0.862885 0.861287 0.859613 0.857897 0.856193 0.854566 0.853082 0.851796 0.850733 0.849885 0.849210 0.848653 0.848151 0.847649 0.847102 0.846475 0.845745 0.844895 0.843915 0.842797 0.841537 0.840130 0.838575 0.836868 0.835009 0.832997 0.830832 0.828520 0.826069 0.823496 0.820827 0.818102 0.815380 0.812739 0.810282 0.808129 0.806414 0.805264 0.804784 0.805036 0.806026 0.807703 0.809975 0.812726 0.815835 0.819190 0.822697 0.826280 0.829883 0.833464 0.836996 0.840457 0.843837 0.847128 0.850325 0.853427 0.856435 0.859348 0.862170 0.864902 0.867546 0.870105 0.872583 0.874981 0.877303 0.879552 0.881730 0.883840 0.885885 0.887868 0.889790 0.891656 0.870418 0.869377 0.868312 0.867215 0.866072 0.864872 0.863602 0.862254 0.860821 0.859303 0.857712 0.856072 0.854423 0.852818 0.851316 0.849972 0.848823 0.847876 0.847111 0.846482 0.845932 0.845405 0.844851 0.844229 0.843512 0.842676 0.841709 0.840601 0.839346 0.837939 0.836379 0.834664 0.832794 0.830768 0.828591 0.826266 0.823803 0.821219 0.818540 0.815802 0.813059 0.810384 0.807868 0.805624 0.803776 0.802448 0.801750 0.801757 0.802495 0.803937 0.806011 0.808614 0.811632 0.814951 0.818472 0.822110 0.825802 0.829497 0.833159 0.836764 0.840293 0.843736 0.847086 0.850339 0.853493 0.856548 0.859506 0.862368 0.865135 0.867812 0.870401 0.872904 0.875325 0.877667 0.879932 0.882125 0.884248 0.886304 0.888296 0.890226 0.868235 0.867153 0.866058 0.864940 0.863791 0.862598 0.861353 0.860044 0.858665 0.857214 0.855696 0.854129 0.852540 0.850972 0.849474 0.848099 0.846887 0.845859 0.845010 0.844307 0.843703 0.843144 0.842577 0.841958 0.841252 0.840432 0.839482 0.838388 0.837143 0.835743 0.834184 0.832466 0.830589 0.828554 0.826365 0.824029 0.821556 0.818962 0.816272 0.813520 0.810758 0.808050 0.805483 0.803158 0.801193 0.799708 0.798815 0.798598 0.799100 0.800314 0.802189 0.804637 0.807549 0.810815 0.814332 0.818009 0.821775 0.825571 0.829354 0.833093 0.836767 0.840358 0.843857 0.847258 0.850557 0.853753 0.856847 0.859838 0.862729 0.865523 0.868223 0.870831 0.873351 0.875786 0.878139 0.880415 0.882616 0.884745 0.886806 0.888801 0.866050 0.864923 0.863790 0.862646 0.861481 0.860286 0.859052 0.857770 0.856432 0.855035 0.853581 0.852080 0.850552 0.849029 0.847552 0.846167 0.844916 0.843825 0.842902 0.842129 0.841467 0.840870 0.840284 0.839663 0.838966 0.838163 0.837232 0.836157 0.834927 0.833538 0.831986 0.830270 0.828391 0.826351 0.824155 0.821811 0.819329 0.816726 0.814026 0.811262 0.808481 0.805745 0.803132 0.800737 0.798671 0.797049 0.795983 0.795563 0.795847 0.796845 0.798524 0.800810 0.803606 0.806805 0.810302 0.814002 0.817827 0.821710 0.825604 0.829469 0.833278 0.837011 0.840655 0.844200 0.847641 0.850976 0.854203 0.857323 0.860337 0.863247 0.866057 0.868769 0.871388 0.873915 0.876356 0.878714 0.880992 0.883194 0.885323 0.887383 0.863863 0.862686 0.861512 0.860335 0.859147 0.857942 0.856710 0.855444 0.854136 0.852782 0.851381 0.849939 0.848469 0.846995 0.845550 0.844173 0.842901 0.841767 0.840784 0.839946 0.839228 0.838588 0.837977 0.837348 0.836658 0.835870 0.834959 0.833905 0.832695 0.831322 0.829782 0.828074 0.826198 0.824158 0.821960 0.819611 0.817124 0.814514 0.811806 0.809033 0.806237 0.803476 0.800824 0.798370 0.796217 0.794477 0.793259 0.792659 0.792743 0.793539 0.795027 0.797152 0.799825 0.802945 0.806408 0.810116 0.813984 0.817942 0.821933 0.825912 0.829848 0.833716 0.837497 0.841182 0.844761 0.848231 0.851588 0.854834 0.857968 0.860993 0.863911 0.866726 0.869441 0.872060 0.874587 0.877026 0.879380 0.881654 0.883851 0.885975 0.861673 0.860445 0.859225 0.858010 0.856795 0.855572 0.854334 0.853075 0.851788 0.850466 0.849109 0.847718 0.846303 0.844880 0.843473 0.842116 0.840841 0.839680 0.838652 0.837760 0.836988 0.836303 0.835663 0.835020 0.834331 0.833555 0.832664 0.831632 0.830446 0.829094 0.827571 0.825875 0.824009 0.821974 0.819778 0.817430 0.814941 0.812329 0.809617 0.806836 0.804029 0.801250 0.798568 0.796065 0.793840 0.791999 0.790651 0.789892 0.789798 0.790407 0.791715 0.793680 0.796227 0.799259 0.802675 0.806377 0.810275 0.814292 0.818367 0.822449 0.826501 0.830493 0.834405 0.838221 0.841932 0.845531 0.849015 0.852382 0.855633 0.858769 0.861793 0.864708 0.867518 0.870227 0.872838 0.875356 0.877786 0.880130 0.882394 0.884581 0.859483 0.858199 0.856930 0.855674 0.854425 0.853178 0.851929 0.850669 0.849394 0.848097 0.846776 0.845430 0.844064 0.842691 0.841327 0.839999 0.838735 0.837563 0.836505 0.835569 0.834749 0.834020 0.833347 0.832686 0.831992 0.831225 0.830350 0.829341 0.828179 0.826851 0.825350 0.823673 0.821821 0.819798 0.817610 0.815267 0.812781 0.810171 0.807460 0.804678 0.801866 0.799075 0.796370 0.793830 0.791548 0.789625 0.788167 0.787272 0.787021 0.787460 0.788601 0.790413 0.792832 0.795771 0.799131 0.802813 0.806725 0.810788 0.814932 0.819104 0.823259 0.827365 0.831397 0.835336 0.839171 0.842893 0.846496 0.849980 0.853342 0.856585 0.859711 0.862723 0.865625 0.868420 0.871114 0.873710 0.876212 0.878626 0.880955 0.883203 0.857291 0.855949 0.854629 0.853327 0.852040 0.850766 0.849499 0.848233 0.846963 0.845684 0.844392 0.843084 0.841764 0.840439 0.839120 0.837828 0.836584 0.835415 0.834341 0.833374 0.832513 0.831744 0.831036 0.830352 0.829649 0.828885 0.828024 0.827036 0.825899 0.824597 0.823121 0.821467 0.819635 0.817628 0.815454 0.813122 0.810646 0.808044 0.805340 0.802562 0.799752 0.796957 0.794239 0.791675 0.789350 0.787363 0.785816 0.784808 0.784421 0.784712 0.785700 0.787367 0.789661 0.792503 0.795798 0.799449 0.803363 0.807455 0.811655 0.815901 0.820146 0.824353 0.828493 0.832545 0.836494 0.840330 0.844046 0.847639 0.851107 0.854452 0.857675 0.860780 0.863769 0.866648 0.869420 0.872091 0.874664 0.877144 0.879537 0.881845 0.855099 0.853697 0.852322 0.850971 0.849644 0.848337 0.847047 0.845770 0.844501 0.843234 0.841964 0.840691 0.839412 0.838132 0.836859 0.835607 0.834394 0.833238 0.832161 0.831175 0.830284 0.829479 0.828738 0.828028 0.827311 0.826545 0.825693 0.824723 0.823609 0.822334 0.820885 0.819257 0.817449 0.815465 0.813310 0.810996 0.808536 0.805949 0.803258 0.800493 0.797691 0.794902 0.792183 0.789606 0.787255 0.785222 0.783608 0.782509 0.782010 0.782172 0.783024 0.784559 0.786733 0.789476 0.792701 0.796310 0.800212 0.804320 0.808559 0.812864 0.817184 0.821478 0.825713 0.829865 0.833918 0.837858 0.841677 0.845371 0.848938 0.852377 0.855692 0.858884 0.861956 0.864914 0.867762 0.870503 0.873144 0.875689 0.878142 0.880509 0.852908 0.851444 0.850011 0.848609 0.847237 0.845894 0.844579 0.843286 0.842012 0.840752 0.839501 0.838257 0.837016 0.835780 0.834554 0.833345 0.832168 0.831036 0.829968 0.828975 0.828064 0.827231 0.826459 0.825722 0.824986 0.824213 0.823365 0.822408 0.821315 0.820065 0.818645 0.817046 0.815266 0.813309 0.811179 0.808889 0.806452 0.803887 0.801217 0.798472 0.795690 0.792916 0.790207 0.787632 0.785270 0.783211 0.781550 0.780384 0.779796 0.779851 0.780586 0.782001 0.784063 0.786710 0.789859 0.793418 0.797296 0.801405 0.805667 0.810015 0.814394 0.818759 0.823075 0.827314 0.831457 0.835489 0.839401 0.843187 0.846844 0.850371 0.853769 0.857042 0.860193 0.863225 0.866143 0.868953 0.871658 0.874264 0.876775 0.879197 0.850723 0.849193 0.847699 0.846242 0.844823 0.843442 0.842096 0.840784 0.839501 0.838245 0.837009 0.835790 0.834585 0.833391 0.832211 0.831049 0.829913 0.828814 0.827764 0.826776 0.825856 0.825002 0.824204 0.823442 0.822685 0.821899 0.821049 0.820101 0.819025 0.817798 0.816405 0.814837 0.813088 0.811162 0.809063 0.806803 0.804396 0.801860 0.799220 0.796505 0.793751 0.791003 0.788317 0.785758 0.783402 0.781336 0.779651 0.778439 0.777786 0.777758 0.778395 0.779706 0.781665 0.784218 0.787289 0.790792 0.794634 0.798730 0.803000 0.807375 0.811796 0.816215 0.820595 0.824906 0.829126 0.833238 0.837230 0.841097 0.844834 0.848440 0.851915 0.855262 0.858484 0.861585 0.864569 0.867442 0.870207 0.872871 0.875438 0.877912 0.848545 0.846948 0.845390 0.843876 0.842406 0.840982 0.839603 0.838269 0.836975 0.835718 0.834494 0.833298 0.832126 0.830973 0.829840 0.828726 0.827635 0.826576 0.825555 0.824582 0.823662 0.822798 0.821980 0.821194 0.820416 0.819615 0.818757 0.817811 0.816747 0.815540 0.814173 0.812634 0.810919 0.809026 0.806963 0.804739 0.802369 0.799870 0.797268 0.794592 0.791877 0.789168 0.786518 0.783990 0.781658 0.779603 0.777914 0.776681 0.775986 0.775896 0.776456 0.777679 0.779546 0.782011 0.785005 0.788444 0.792242 0.796311 0.800573 0.804958 0.809403 0.813860 0.818288 0.822655 0.826936 0.831114 0.835174 0.839110 0.842917 0.846592 0.850135 0.853549 0.856835 0.859999 0.863044 0.865974 0.868796 0.871514 0.874133 0.876657 0.846380 0.844712 0.843088 0.841513 0.839990 0.838521 0.837106 0.835745 0.834437 0.833177 0.831963 0.830787 0.829646 0.828534 0.827447 0.826383 0.825343 0.824328 0.823344 0.822396 0.821488 0.820621 0.819791 0.818986 0.818187 0.817368 0.816499 0.815550 0.814492 0.813300 0.811955 0.810445 0.808762 0.806906 0.804882 0.802699 0.800372 0.797919 0.795364 0.792736 0.790071 0.787413 0.784812 0.782331 0.780039 0.778015 0.776344 0.775111 0.774397 0.774269 0.774772 0.775924 0.777712 0.780096 0.783012 0.786384 0.790127 0.794159 0.798398 0.802776 0.807229 0.811706 0.816164 0.820570 0.824897 0.829126 0.833241 0.837234 0.841099 0.844833 0.848435 0.851906 0.855250 0.858470 0.861569 0.864554 0.867427 0.870195 0.872862 0.875433 0.844233 0.842491 0.840799 0.839160 0.837581 0.836063 0.834610 0.833220 0.831895 0.830630 0.829422 0.828265 0.827154 0.826081 0.825042 0.824030 0.823043 0.822078 0.821138 0.820223 0.819336 0.818477 0.817642 0.816824 0.816006 0.815168 0.814284 0.813327 0.812269 0.811086 0.809760 0.808275 0.806624 0.804806 0.802824 0.800687 0.798408 0.796007 0.793508 0.790938 0.788335 0.785739 0.783202 0.780782 0.778547 0.776573 0.774939 0.773729 0.773019 0.772874 0.773341 0.774439 0.776160 0.778470 0.781312 0.784613 0.788296 0.792277 0.796481 0.800836 0.805279 0.809759 0.814231 0.818659 0.823016 0.827280 0.831436 0.835473 0.839384 0.843166 0.846817 0.850339 0.853732 0.857001 0.860149 0.863181 0.866101 0.868915 0.871627 0.874242 0.842111 0.840294 0.838529 0.836825 0.835186 0.833617 0.832121 0.830701 0.829355 0.828083 0.826880 0.825740 0.824657 0.823624 0.822632 0.821674 0.820742 0.819833 0.818942 0.818069 0.817211 0.816369 0.815538 0.814712 0.813879 0.813023 0.812122 0.811152 0.810089 0.808910 0.807596 0.806133 0.804513 0.802731 0.800792 0.798704 0.796480 0.794138 0.791701 0.789200 0.786668 0.784147 0.781686 0.779343 0.777182 0.775275 0.773698 0.772531 0.771846 0.771705 0.772155 0.773216 0.774883 0.777128 0.779898 0.783129 0.786744 0.790667 0.794821 0.799139 0.803557 0.808023 0.812491 0.816925 0.821295 0.825580 0.829762 0.833830 0.837776 0.841595 0.845286 0.848848 0.852283 0.855594 0.858785 0.861859 0.864821 0.867676 0.870429 0.873084 0.840023 0.838127 0.836288 0.834515 0.832814 0.831190 0.829650 0.828196 0.826828 0.825546 0.824345 0.823221 0.822167 0.821172 0.820228 0.819324 0.818451 0.817601 0.816765 0.815939 0.815119 0.814302 0.813483 0.812656 0.811813 0.810941 0.810021 0.809035 0.807962 0.806781 0.805475 0.804029 0.802434 0.800688 0.798793 0.796756 0.794589 0.792312 0.789946 0.787521 0.785071 0.782636 0.780265 0.778012 0.775939 0.774116 0.772615 0.771509 0.770868 0.770752 0.771202 0.772241 0.773868 0.776057 0.778761 0.781920 0.785464 0.789319 0.793414 0.797681 0.802059 0.806495 0.810943 0.815367 0.819736 0.824026 0.828221 0.832307 0.836276 0.840121 0.843841 0.847435 0.850904 0.854250 0.857477 0.860587 0.863587 0.866479 0.869269 0.871961 0.837978 0.836002 0.834086 0.832241 0.830474 0.828795 0.827207 0.825716 0.824324 0.823029 0.821830 0.820720 0.819692 0.818736 0.817840 0.816992 0.816179 0.815390 0.814614 0.813842 0.813066 0.812281 0.811482 0.810661 0.809813 0.808927 0.807990 0.806986 0.805898 0.804710 0.803404 0.801970 0.800398 0.798684 0.796831 0.794846 0.792740 0.790532 0.788243 0.785902 0.783542 0.781204 0.778934 0.776784 0.774815 0.773091 0.771681 0.770654 0.770074 0.769998 0.770466 0.771499 0.773097 0.775238 0.777881 0.780970 0.784440 0.788222 0.792248 0.796453 0.800777 0.805169 0.809583 0.813981 0.818334 0.822616 0.826810 0.830902 0.834881 0.838743 0.842482 0.846099 0.849594 0.852969 0.856225 0.859367 0.862399 0.865325 0.868148 0.870873 0.835988 0.833929 0.831934 0.830015 0.828182 0.826442 0.824805 0.823275 0.821856 0.820547 0.819347 0.818250 0.817247 0.816328 0.815480 0.814688 0.813937 0.813212 0.812499 0.811785 0.811059 0.810313 0.809540 0.808732 0.807884 0.806988 0.806034 0.805011 0.803906 0.802705 0.801396 0.799967 0.798412 0.796727 0.794915 0.792980 0.790937 0.788800 0.786593 0.784342 0.782081 0.779849 0.777690 0.775655 0.773800 0.772189 0.770884 0.769950 0.769447 0.769427 0.769927 0.770967 0.772548 0.774650 0.777237 0.780257 0.783652 0.787356 0.791306 0.795440 0.799699 0.804034 0.808400 0.812760 0.817083 0.821345 0.825525 0.829611 0.833590 0.837457 0.841208 0.844840 0.848353 0.851749 0.855030 0.858198 0.861257 0.864211 0.867064 0.869820 0.834065 0.831922 0.829847 0.827852 0.825949 0.824148 0.822459 0.820888 0.819439 0.818114 0.816911 0.815825 0.814846 0.813964 0.813163 0.812427 0.811738 0.811079 0.810431 0.809778 0.809107 0.808405 0.807663 0.806874 0.806032 0.805129 0.804161 0.803119 0.801994 0.800777 0.799458 0.798030 0.796486 0.794826 0.793050 0.791165 0.789183 0.787120 0.784998 0.782842 0.780686 0.778567 0.776527 0.774616 0.772887 0.771399 0.770211 0.769382 0.768969 0.769017 0.769561 0.770619 0.772193 0.774265 0.776801 0.779757 0.783076 0.786700 0.790568 0.794622 0.798808 0.803076 0.807383 0.811693 0.815974 0.820203 0.824359 0.828428 0.832398 0.836262 0.840014 0.843654 0.847178 0.850589 0.853888 0.857077 0.860160 0.863139 0.866018 0.868801 0.832223 0.829996 0.827840 0.825768 0.823794 0.821930 0.820186 0.818572 0.817092 0.815749 0.814541 0.813464 0.812508 0.811660 0.810905 0.810224 0.809597 0.809003 0.808422 0.807832 0.807218 0.806565 0.805859 0.805094 0.804261 0.803357 0.802377 0.801316 0.800170 0.798933 0.797601 0.796167 0.794630 0.792988 0.791245 0.789407 0.787485 0.785496 0.783460 0.781402 0.779355 0.777354 0.775441 0.773661 0.772066 0.770710 0.769647 0.768933 0.768619 0.768745 0.769343 0.770429 0.772005 0.774053 0.776546 0.779439 0.782684 0.786227 0.790010 0.793980 0.798084 0.802277 0.806516 0.810765 0.814995 0.819181 0.823303 0.827346 0.831297 0.835149 0.838897 0.842536 0.846066 0.849487 0.852799 0.856004 0.859106 0.862106 0.865009 0.867816 0.830478 0.828167 0.825930 0.823781 0.821735 0.819806 0.818007 0.816348 0.814835 0.813472 0.812258 0.811187 0.810251 0.809437 0.808726 0.808098 0.807531 0.807002 0.806486 0.805960 0.805405 0.804802 0.804136 0.803398 0.802580 0.801677 0.800688 0.799610 0.798442 0.797184 0.795834 0.794390 0.792853 0.791224 0.789508 0.787712 0.785848 0.783931 0.781981 0.780023 0.778087 0.776208 0.774425 0.772782 0.771326 0.770107 0.769177 0.768585 0.768376 0.768587 0.769247 0.770369 0.771953 0.773986 0.776439 0.779274 0.782448 0.785908 0.789605 0.793487 0.797505 0.801616 0.805780 0.809962 0.814132 0.818267 0.822347 0.826355 0.830280 0.834114 0.837849 0.841483 0.845012 0.848437 0.851758 0.854976 0.858093 0.861112 0.864034 0.866864 0.828846 0.826454 0.824136 0.821910 0.819792 0.817799 0.815944 0.814239 0.812692 0.811307 0.810084 0.809018 0.808100 0.807316 0.806646 0.806069 0.805560 0.805092 0.804640 0.804177 0.803680 0.803128 0.802504 0.801796 0.800995 0.800097 0.799100 0.798007 0.796818 0.795537 0.794165 0.792707 0.791165 0.789544 0.787849 0.786091 0.784279 0.782431 0.780565 0.778706 0.776882 0.775126 0.773475 0.771971 0.770657 0.769579 0.768785 0.768318 0.768219 0.768521 0.769248 0.770411 0.772010 0.774031 0.776450 0.779232 0.782336 0.785716 0.789326 0.793119 0.797048 0.801073 0.805157 0.809265 0.813370 0.817448 0.821478 0.825446 0.829339 0.833147 0.836865 0.840488 0.844012 0.847437 0.850763 0.853990 0.857119 0.860153 0.863093 0.865942 0.827345 0.824873 0.822478 0.820177 0.817989 0.815932 0.814021 0.812270 0.810687 0.809279 0.808046 0.806983 0.806080 0.805322 0.804689 0.804159 0.803703 0.803294 0.802903 0.802500 0.802059 0.801557 0.800974 0.800296 0.799514 0.798623 0.797622 0.796515 0.795305 0.794000 0.792606 0.791129 0.789577 0.787957 0.786278 0.784551 0.782787 0.781002 0.779217 0.777454 0.775740 0.774106 0.772587 0.771221 0.770050 0.769114 0.768457 0.768117 0.768130 0.768524 0.769321 0.770528 0.772146 0.774160 0.776549 0.779281 0.782320 0.785623 0.789147 0.792850 0.796689 0.800627 0.804627 0.808657 0.812692 0.816708 0.820684 0.824607 0.828462 0.832242 0.835937 0.839545 0.843060 0.846482 0.849809 0.853042 0.856181 0.859228 0.862184 0.865051 0.825992 0.823445 0.820976 0.818604 0.816349 0.814230 0.812265 0.810468 0.808850 0.807417 0.806172 0.805108 0.804217 0.803482 0.802882 0.802393 0.801986 0.801630 0.801294 0.800946 0.800557 0.800102 0.799559 0.798911 0.798148 0.797265 0.796261 0.795141 0.793912 0.792583 0.791163 0.789665 0.788099 0.786475 0.784806 0.783102 0.781379 0.779653 0.777943 0.776270 0.774662 0.773147 0.771757 0.770528 0.769497 0.768702 0.768179 0.767965 0.768089 0.768576 0.769443 0.770697 0.772336 0.774347 0.776710 0.779396 0.782372 0.785600 0.789041 0.792656 0.796405 0.800254 0.804169 0.808121 0.812083 0.816033 0.819953 0.823826 0.827641 0.831387 0.835058 0.838647 0.842151 0.845566 0.848893 0.852129 0.855276 0.858333 0.861303 0.864187 0.824804 0.822189 0.819652 0.817214 0.814896 0.812719 0.810701 0.808860 0.807208 0.805750 0.804491 0.803424 0.802541 0.801824 0.801252 0.800798 0.800432 0.800123 0.799835 0.799535 0.799193 0.798780 0.798273 0.797653 0.796908 0.796033 0.795027 0.793895 0.792647 0.791294 0.789849 0.788327 0.786742 0.785109 0.783442 0.781756 0.780067 0.778391 0.776749 0.775161 0.773653 0.772251 0.770985 0.769888 0.768993 0.768333 0.767942 0.767850 0.768082 0.768660 0.769597 0.770897 0.772558 0.774568 0.776907 0.779551 0.782468 0.785624 0.788985 0.792513 0.796175 0.799936 0.803766 0.807638 0.811526 0.815410 0.819270 0.823093 0.826865 0.830576 0.834219 0.837788 0.841277 0.844685 0.848009 0.851247 0.854400 0.857468 0.860450 0.863349 0.823799 0.821123 0.818525 0.816028 0.813653 0.811422 0.809357 0.807475 0.805789 0.804307 0.803032 0.801960 0.801081 0.800376 0.799825 0.799400 0.799068 0.798796 0.798548 0.798289 0.797986 0.797609 0.797132 0.796535 0.795806 0.794938 0.793930 0.792787 0.791520 0.790142 0.788671 0.787123 0.785517 0.783870 0.782200 0.780524 0.778861 0.777228 0.775645 0.774133 0.772717 0.771421 0.770272 0.769300 0.768534 0.768004 0.767738 0.767762 0.768098 0.768762 0.769765 0.771111 0.772794 0.774803 0.777121 0.779725 0.782586 0.785674 0.788957 0.792403 0.795978 0.799654 0.803401 0.807193 0.811008 0.814824 0.818625 0.822396 0.826124 0.829799 0.833413 0.836960 0.840435 0.843833 0.847153 0.850393 0.853551 0.856628 0.859622 0.862536 0.822991 0.820264 0.817615 0.815066 0.812642 0.810365 0.808258 0.806338 0.804621 0.803116 0.801825 0.800745 0.799865 0.799168 0.798630 0.798224 0.797917 0.797673 0.797455 0.797228 0.796955 0.796605 0.796152 0.795574 0.794856 0.793992 0.792980 0.791826 0.790540 0.789139 0.787641 0.786066 0.784435 0.782769 0.781090 0.779418 0.777772 0.776173 0.774640 0.773196 0.771861 0.770662 0.769621 0.768764 0.768119 0.767710 0.767561 0.767695 0.768128 0.768873 0.769939 0.771326 0.773029 0.775038 0.777336 0.779902 0.782710 0.785733 0.788942 0.792307 0.795800 0.799392 0.803057 0.806772 0.810514 0.814264 0.818006 0.821725 0.825410 0.829048 0.832634 0.836158 0.839617 0.843006 0.846322 0.849563 0.852726 0.855811 0.858818 0.861745 0.822393 0.819627 0.816937 0.814347 0.811883 0.809568 0.807425 0.805474 0.803730 0.802202 0.800895 0.799804 0.798919 0.798223 0.797692 0.797296 0.797004 0.796777 0.796579 0.796371 0.796118 0.795787 0.795349 0.794783 0.794072 0.793208 0.792190 0.791023 0.789719 0.788295 0.786769 0.785165 0.783508 0.781820 0.780126 0.778450 0.776814 0.775238 0.773746 0.772358 0.771096 0.769981 0.769037 0.768286 0.767751 0.767453 0.767412 0.767645 0.768167 0.768986 0.770109 0.771533 0.773255 0.775262 0.777540 0.780069 0.782825 0.785786 0.788924 0.792212 0.795625 0.799137 0.802723 0.806362 0.810034 0.813720 0.817404 0.821073 0.824714 0.828317 0.831874 0.835377 0.838821 0.842200 0.845512 0.848753 0.851922 0.855015 0.858034 0.860976 0.822016 0.819222 0.816503 0.813885 0.811391 0.809048 0.806878 0.804901 0.803134 0.801587 0.800263 0.799160 0.798266 0.797565 0.797031 0.796637 0.796348 0.796128 0.795937 0.795738 0.795494 0.795171 0.794739 0.794177 0.793466 0.792598 0.791571 0.790391 0.789067 0.787618 0.786065 0.784433 0.782746 0.781033 0.779321 0.777634 0.775999 0.774439 0.772976 0.771633 0.770430 0.769389 0.768529 0.767872 0.767435 0.767236 0.767292 0.767615 0.768216 0.769101 0.770273 0.771730 0.773466 0.775469 0.777726 0.780218 0.782925 0.785825 0.788894 0.792108 0.795444 0.798878 0.802389 0.805955 0.809559 0.813182 0.816811 0.820431 0.824030 0.827598 0.831128 0.834610 0.838040 0.841411 0.844720 0.847962 0.851136 0.854239 0.857269 0.860226 0.821866 0.819057 0.816323 0.813688 0.811178 0.808817 0.806628 0.804634 0.802850 0.801286 0.799946 0.798829 0.797922 0.797209 0.796666 0.796264 0.795968 0.795742 0.795547 0.795345 0.795097 0.794771 0.794336 0.793769 0.793052 0.792175 0.791135 0.789938 0.788594 0.787121 0.785540 0.783878 0.782162 0.780421 0.778685 0.776982 0.775341 0.773786 0.772342 0.771032 0.769877 0.768896 0.768108 0.767530 0.767178 0.767066 0.767205 0.767607 0.768277 0.769219 0.770433 0.771916 0.773661 0.775657 0.777891 0.780346 0.783004 0.785845 0.788847 0.791990 0.795251 0.798611 0.802048 0.805544 0.809082 0.812646 0.816221 0.819793 0.823353 0.826889 0.830392 0.833856 0.837272 0.840636 0.843943 0.847188 0.850368 0.853481 0.856524 0.859495 0.821945 0.819136 0.816400 0.813762 0.811247 0.808879 0.806683 0.804679 0.802884 0.801307 0.799953 0.798820 0.797897 0.797167 0.796607 0.796187 0.795874 0.795631 0.795420 0.795201 0.794939 0.794599 0.794151 0.793570 0.792840 0.791948 0.790892 0.789676 0.788310 0.786812 0.785204 0.783511 0.781764 0.779994 0.778231 0.776507 0.774853 0.773295 0.771859 0.770571 0.769449 0.768515 0.767784 0.767272 0.766990 0.766951 0.767162 0.767630 0.768357 0.769346 0.770594 0.772096 0.773845 0.775829 0.778038 0.780454 0.783063 0.785845 0.788782 0.791855 0.795044 0.798331 0.801697 0.805126 0.808600 0.812106 0.815630 0.819158 0.822680 0.826185 0.829664 0.833110 0.836515 0.839874 0.843179 0.846428 0.849615 0.852739 0.855795 0.858783 0.822251 0.819456 0.816732 0.814104 0.811597 0.809235 0.807042 0.805037 0.803236 0.801651 0.800285 0.799136 0.798194 0.797442 0.796857 0.796411 0.796071 0.795800 0.795562 0.795317 0.795029 0.794664 0.794193 0.793590 0.792839 0.791927 0.790850 0.789612 0.788223 0.786699 0.785063 0.783341 0.781563 0.779762 0.777970 0.776221 0.774547 0.772978 0.771541 0.770262 0.769163 0.768261 0.767572 0.767110 0.766885 0.766904 0.767172 0.767693 0.768467 0.769491 0.770764 0.772277 0.774023 0.775992 0.778171 0.780547 0.783105 0.785828 0.788700 0.791704 0.794822 0.798038 0.801336 0.804699 0.808113 0.811563 0.815037 0.818523 0.822009 0.825485 0.828943 0.832373 0.835769 0.839122 0.842429 0.845682 0.848878 0.852013 0.855084 0.858088 0.822779 0.820010 0.817312 0.814708 0.812222 0.809877 0.807696 0.805698 0.803900 0.802311 0.800935 0.799771 0.798807 0.798029 0.797415 0.796935 0.796559 0.796251 0.795975 0.795692 0.795368 0.794970 0.794466 0.793834 0.793055 0.792117 0.791015 0.789753 0.788339 0.786789 0.785126 0.783374 0.781566 0.779733 0.777911 0.776133 0.774435 0.772848 0.771401 0.770121 0.769031 0.768148 0.767487 0.767061 0.766876 0.766939 0.767250 0.767810 0.768617 0.769667 0.770954 0.772470 0.774207 0.776155 0.778301 0.780633 0.783138 0.785801 0.788608 0.791543 0.794591 0.797737 0.800967 0.804266 0.807621 0.811017 0.814444 0.817889 0.821341 0.824791 0.828228 0.831645 0.835032 0.838383 0.841691 0.844951 0.848157 0.851305 0.854391 0.857412 0.823519 0.820790 0.818129 0.815561 0.813107 0.810790 0.808631 0.806650 0.804860 0.803272 0.801889 0.800710 0.799725 0.798918 0.798268 0.797749 0.797330 0.796977 0.796654 0.796326 0.795957 0.795515 0.794972 0.794303 0.793490 0.792521 0.791391 0.790102 0.788662 0.787086 0.785396 0.783616 0.781778 0.779914 0.778061 0.776253 0.774527 0.772916 0.771452 0.770161 0.769068 0.768191 0.767544 0.767139 0.766980 0.767070 0.767410 0.767996 0.768824 0.769888 0.771179 0.772690 0.774410 0.776330 0.778438 0.780723 0.783173 0.785774 0.788514 0.791380 0.794358 0.797435 0.800598 0.803833 0.807130 0.810474 0.813854 0.817260 0.820680 0.824104 0.827523 0.830927 0.834307 0.837657 0.840968 0.844235 0.847452 0.850614 0.853716 0.856755 0.824459 0.821779 0.819168 0.816646 0.814234 0.811955 0.809827 0.807869 0.806095 0.804513 0.803126 0.801934 0.800926 0.800089 0.799402 0.798839 0.798371 0.797966 0.797590 0.797209 0.796788 0.796297 0.795707 0.794995 0.794144 0.793140 0.791979 0.790661 0.789194 0.787593 0.785876 0.784070 0.782203 0.780310 0.778426 0.776588 0.774831 0.773192 0.771704 0.770394 0.769288 0.768405 0.767758 0.767359 0.767211 0.767315 0.767668 0.768267 0.769103 0.770168 0.771454 0.772950 0.774646 0.776533 0.778598 0.780832 0.783222 0.785760 0.788431 0.791227 0.794134 0.797141 0.800236 0.803409 0.806647 0.809939 0.813274 0.816641 0.820030 0.823430 0.826831 0.830223 0.833598 0.836947 0.840263 0.843538 0.846766 0.849942 0.853061 0.856118 0.825581 0.822962 0.820409 0.817942 0.815582 0.813349 0.811260 0.809333 0.807579 0.806007 0.804621 0.803417 0.802388 0.801520 0.800793 0.800184 0.799664 0.799203 0.798769 0.798329 0.797850 0.797304 0.796663 0.795905 0.795011 0.793970 0.792775 0.791428 0.789934 0.788307 0.786566 0.784735 0.782843 0.780923 0.779009 0.777140 0.775353 0.773684 0.772166 0.770831 0.769703 0.768802 0.768144 0.767737 0.767586 0.767689 0.768042 0.768639 0.769470 0.770526 0.771796 0.773269 0.774933 0.776779 0.778796 0.780974 0.783302 0.785772 0.788374 0.791096 0.793931 0.796867 0.799894 0.803003 0.806183 0.809422 0.812712 0.816041 0.819398 0.822774 0.826157 0.829539 0.832909 0.836258 0.839579 0.842862 0.846103 0.849293 0.852428 0.855504 0.826870 0.824319 0.821832 0.819428 0.817127 0.814946 0.812903 0.811012 0.809284 0.807727 0.806343 0.805131 0.804082 0.803183 0.802416 0.801759 0.801185 0.800666 0.800171 0.799669 0.799130 0.798526 0.797831 0.797022 0.796084 0.795003 0.793774 0.792397 0.790877 0.789227 0.787464 0.785611 0.783696 0.781751 0.779811 0.777913 0.776095 0.774394 0.772845 0.771478 0.770321 0.769395 0.768714 0.768287 0.768119 0.768208 0.768547 0.769130 0.769944 0.770979 0.772223 0.773663 0.775288 0.777087 0.779049 0.781167 0.783429 0.785829 0.788356 0.791004 0.793764 0.796627 0.799585 0.802629 0.805749 0.808935 0.812179 0.815468 0.818794 0.822145 0.825511 0.828881 0.832246 0.835595 0.838920 0.842212 0.845464 0.848669 0.851821 0.854915 0.828307 0.825829 0.823414 0.821080 0.818843 0.816720 0.814727 0.812876 0.811178 0.809640 0.808263 0.807044 0.805977 0.805050 0.804244 0.803539 0.802911 0.802332 0.801775 0.801211 0.800610 0.799946 0.799195 0.798335 0.797351 0.796231 0.794968 0.793562 0.792017 0.790345 0.788563 0.786691 0.784757 0.782791 0.780828 0.778905 0.777059 0.775326 0.773744 0.772343 0.771152 0.770191 0.769478 0.769022 0.768825 0.768886 0.769199 0.769755 0.770540 0.771544 0.772751 0.774150 0.775727 0.777473 0.779376 0.781428 0.783620 0.785946 0.788397 0.790968 0.793650 0.796438 0.799324 0.802301 0.805359 0.808491 0.811686 0.814935 0.818228 0.821553 0.824900 0.828258 0.831616 0.834964 0.838293 0.841593 0.844856 0.848074 0.851242 0.854354 0.829873 0.827473 0.825134 0.822873 0.820704 0.818643 0.816704 0.814897 0.813233 0.811715 0.810347 0.809126 0.808043 0.807089 0.806246 0.805495 0.804814 0.804177 0.803559 0.802932 0.802269 0.801546 0.800739 0.799829 0.798801 0.797641 0.796346 0.794912 0.793345 0.791654 0.789856 0.787969 0.786020 0.784038 0.782057 0.780112 0.778240 0.776479 0.774863 0.773427 0.772198 0.771199 0.770446 0.769950 0.769714 0.769738 0.770013 0.770529 0.771275 0.772236 0.773398 0.774746 0.776269 0.777955 0.779793 0.781775 0.783893 0.786141 0.788513 0.791003 0.793606 0.796317 0.799128 0.802035 0.805029 0.808104 0.811248 0.814454 0.817711 0.821008 0.824334 0.827678 0.831028 0.834373 0.837704 0.841010 0.844283 0.847514 0.850696 0.853824 0.831548 0.829229 0.826970 0.824784 0.822686 0.820689 0.818806 0.817046 0.815417 0.813924 0.812567 0.811345 0.810250 0.809271 0.808393 0.807599 0.806868 0.806176 0.805498 0.804811 0.804088 0.803308 0.802447 0.801488 0.800416 0.799220 0.797894 0.796435 0.794849 0.793143