# vtk DataFile Version 2.0
one liner comment goes here
ASCII
DATASET STRUCTURED_POINTS
DIMENSIONS 30 30 30
ORIGIN 0 0 0
SPACING 1 1 1
POINT_DATA 27000
SCALARS anyoldnameforthisvolume float
LOOKUP_TABLE default
1.128300 1.131148 1.133978 1.136768 1.139496 1.142134 1.144654 1.147027 1.149220 1.151203 1.152944 1.154414 1.155587 1.156441 1.156960 1.157135 1.156960 1.156441 1.155587 1.154414 1.152944 1.151203 1.149220 1.147027 1.144654 1.142134 1.139496 1.136768 1.133978 1.131148 1.131148 1.134195 1.137231 1.140234 1.143179 1.146036 1.148774 1.151359 1.153755 1.155927 1.157838 1.159455 1.160748 1.161690 1.162264 1.162457 1.162264 1.161690 1.160748 1.159455 1.157838 1.155927 1.153755 1.151359 1.148774 1.146036 1.143179 1.140234 1.137231 1.134195 1.133978 1.137231 1.140483 1.143710 1.146884 1.149974 1.152944 1.155756 1.158371 1.160748 1.162844 1.164622 1.166045 1.167085 1.167718 1.167931 1.167718 1.167085 1.166045 1.164622 1.162844 1.160748 1.158371 1.155756 1.152944 1.149974 1.146884 1.143710 1.140483 1.137231 1.136768 1.140234 1.143710 1.147170 1.150585 1.153919 1.157135 1.160190 1.163039 1.165635 1.167931 1.169882 1.171448 1.172593 1.173292 1.173526 1.173292 1.172593 1.171448 1.169882 1.167931 1.165635 1.163039 1.160190 1.157135 1.153919 1.150585 1.147170 1.143710 1.140234 1.139496 1.143179 1.146884 1.150585 1.154248 1.157838 1.161311 1.164621 1.167718 1.170548 1.173058 1.175196 1.176915 1.178174 1.178943 1.179201 1.178943 1.178174 1.176915 1.175196 1.173058 1.170548 1.167718 1.164621 1.161311 1.157838 1.154248 1.150585 1.146884 1.143179 1.142134 1.146036 1.149974 1.153919 1.157838 1.161690 1.165431 1.169007 1.172363 1.175439 1.178174 1.180510 1.182392 1.183773 1.184616 1.184900 1.184616 1.183773 1.182392 1.180510 1.178174 1.175439 1.172363 1.169007 1.165431 1.161690 1.157838 1.153919 1.149974 1.146036 1.144654 1.148774 1.152944 1.157135 1.161311 1.165431 1.169443 1.173292 1.176915 1.180246 1.183216 1.185759 1.187812 1.189321 1.190243 1.190554 1.190243 1.189321 1.187812 1.185759 1.183216 1.180246 1.176915 1.173292 1.169443 1.165431 1.161311 1.157135 1.152944 1.148774 1.147027 1.151359 1.155756 1.160190 1.164621 1.169007 1.173292 1.177415 1.181309 1.184900 1.188111 1.190866 1.193095 1.194735 1.195740 1.196078 1.195740 1.194735 1.193095 1.190866 1.188111 1.184900 1.181309 1.177415 1.173292 1.169007 1.164621 1.160190 1.155756 1.151359 1.149220 1.153755 1.158371 1.163039 1.167718 1.172363 1.176915 1.181309 1.185472 1.189321 1.192772 1.195740 1.198146 1.199920 1.201008 1.201374 1.201008 1.199920 1.198146 1.195740 1.192772 1.189321 1.185472 1.181309 1.176915 1.172363 1.167718 1.163039 1.158371 1.153755 1.151203 1.155927 1.160748 1.165635 1.170548 1.175439 1.180246 1.184900 1.189321 1.193420 1.197104 1.200281 1.202860 1.204765 1.205934 1.206328 1.205934 1.204765 1.202860 1.200281 1.197104 1.193420 1.189321 1.184900 1.180246 1.175439 1.170548 1.165635 1.160748 1.155927 1.152944 1.157838 1.162844 1.167931 1.173058 1.178174 1.183216 1.188111 1.192772 1.197104 1.201008 1.204380 1.207123 1.209152 1.210398 1.210819 1.210398 1.209152 1.207123 1.204380 1.201008 1.197104 1.192772 1.188111 1.183216 1.178174 1.173058 1.167931 1.162844 1.157838 1.154414 1.159455 1.164622 1.169882 1.175196 1.180510 1.185759 1.190866 1.195740 1.200281 1.204380 1.207928 1.210819 1.212959 1.214275 1.214719 1.214275 1.212959 1.210819 1.207928 1.204380 1.200281 1.195740 1.190866 1.185759 1.180510 1.175196 1.169882 1.164622 1.159455 1.155587 1.160748 1.166045 1.171448 1.176915 1.182392 1.187812 1.193095 1.198146 1.202860 1.207123 1.210819 1.213833 1.216068 1.217443 1.217907 1.217443 1.216068 1.213833 1.210819 1.207123 1.202860 1.198146 1.193095 1.187812 1.182392 1.176915 1.171448 1.166045 1.160748 1.156441 1.161690 1.167085 1.172593 1.178174 1.183773 1.189321 1.194735 1.199920 1.204765 1.209152 1.212959 1.216068 1.218374 1.219794 1.220273 1.219794 1.218374 1.216068 1.212959 1.209152 1.204765 1.199920 1.194735 1.189321 1.183773 1.178174 1.172593 1.167085 1.161690 1.156960 1.162264 1.167718 1.173292 1.178943 1.184616 1.190243 1.195740 1.201008 1.205934 1.210398 1.214275 1.217443 1.219794 1.221241 1.221730 1.221241 1.219794 1.217443 1.214275 1.210398 1.205934 1.201008 1.195740 1.190243 1.184616 1.178943 1.173292 1.167718 1.162264 1.157135 1.162457 1.167931 1.173526 1.179201 1.184900 1.190554 1.196078 1.201374 1.206328 1.210819 1.214719 1.217907 1.220273 1.221730 1.222222 1.221730 1.220273 1.217907 1.214719 1.210819 1.206328 1.201374 1.196078 1.190554 1.184900 1.179201 1.173526 1.167931 1.162457 1.156960 1.162264 1.167718 1.173292 1.178943 1.184616 1.190243 1.195740 1.201008 1.205934 1.210398 1.214275 1.217443 1.219794 1.221241 1.221730 1.221241 1.219794 1.217443 1.214275 1.210398 1.205934 1.201008 1.195740 1.190243 1.184616 1.178943 1.173292 1.167718 1.162264 1.156441 1.161690 1.167085 1.172593 1.178174 1.183773 1.189321 1.194735 1.199920 1.204765 1.209152 1.212959 1.216068 1.218374 1.219794 1.220273 1.219794 1.218374 1.216068 1.212959 1.209152 1.204765 1.199920 1.194735 1.189321 1.183773 1.178174 1.172593 1.167085 1.161690 1.155587 1.160748 1.166045 1.171448 1.176915 1.182392 1.187812 1.193095 1.198146 1.202860 1.207123 1.210819 1.213833 1.216068 1.217443 1.217907 1.217443 1.216068 1.213833 1.210819 1.207123 1.202860 1.198146 1.193095 1.187812 1.182392 1.176915 1.171448 1.166045 1.160748 1.154414 1.159455 1.164622 1.169882 1.175196 1.180510 1.185759 1.190866 1.195740 1.200281 1.204380 1.207928 1.210819 1.212959 1.214275 1.214719 1.214275 1.212959 1.210819 1.207928 1.204380 1.200281 1.195740 1.190866 1.185759 1.180510 1.175196 1.169882 1.164622 1.159455 1.152944 1.157838 1.162844 1.167931 1.173058 1.178174 1.183216 1.188111 1.192772 1.197104 1.201008 1.204380 1.207123 1.209152 1.210398 1.210819 1.210398 1.209152 1.207123 1.204380 1.201008 1.197104 1.192772 1.188111 1.183216 1.178174 1.173058 1.167931 1.162844 1.157838 1.151203 1.155927 1.160748 1.165635 1.170548 1.175439 1.180246 1.184900 1.189321 1.193420 1.197104 1.200281 1.202860 1.204765 1.205934 1.206328 1.205934 1.204765 1.202860 1.200281 1.197104 1.193420 1.189321 1.184900 1.180246 1.175439 1.170548 1.165635 1.160748 1.155927 1.149220 1.153755 1.158371 1.163039 1.167718 1.172363 1.176915 1.181309 1.185472 1.189321 1.192772 1.195740 1.198146 1.199920 1.201008 1.201374 1.201008 1.199920 1.198146 1.195740 1.192772 1.189321 1.185472 1.181309 1.176915 1.172363 1.167718 1.163039 1.158371 1.153755 1.147027 1.151359 1.155756 1.160190 1.164621 1.169007 1.173292 1.177415 1.181309 1.184900 1.188111 1.190866 1.193095 1.194735 1.195740 1.196078 1.195740 1.194735 1.193095 1.190866 1.188111 1.184900 1.181309 1.177415 1.173292 1.169007 1.164621 1.160190 1.155756 1.151359 1.144654 1.148774 1.152944 1.157135 1.161311 1.165431 1.169443 1.173292 1.176915 1.180246 1.183216 1.185759 1.187812 1.189321 1.190243 1.190554 1.190243 1.189321 1.187812 1.185759 1.183216 1.180246 1.176915 1.173292 1.169443 1.165431 1.161311 1.157135 1.152944 1.148774 1.142134 1.146036 1.149974 1.153919 1.157838 1.161690 1.165431 1.169007 1.172363 1.175439 1.178174 1.180510 1.182392 1.183773 1.184616 1.184900 1.184616 1.183773 1.182392 1.180510 1.178174 1.175439 1.172363 1.169007 1.165431 1.161690 1.157838 1.153919 1.149974 1.146036 1.139496 1.143179 1.146884 1.150585 1.154248 1.157838 1.161311 1.164621 1.167718 1.170548 1.173058 1.175196 1.176915 1.178174 1.178943 1.179201 1.178943 1.178174 1.176915 1.175196 1.173058 1.170548 1.167718 1.164621 1.161311 1.157838 1.154248 1.150585 1.146884 1.143179 1.136768 1.140234 1.143710 1.147170 1.150585 1.153919 1.157135 1.160190 1.163039 1.165635 1.167931 1.169882 1.171448 1.172593 1.173292 1.173526 1.173292 1.172593 1.171448 1.169882 1.167931 1.165635 1.163039 1.160190 1.157135 1.153919 1.150585 1.147170 1.143710 1.140234 1.133978 1.137231 1.140483 1.143710 1.146884 1.149974 1.152944 1.155756 1.158371 1.160748 1.162844 1.164622 1.166045 1.167085 1.167718 1.167931 1.167718 1.167085 1.166045 1.164622 1.162844 1.160748 1.158371 1.155756 1.152944 1.149974 1.146884 1.143710 1.140483 1.137231 1.131148 1.134195 1.137231 1.140234 1.143179 1.146036 1.148774 1.151359 1.153755 1.155927 1.157838 1.159455 1.160748 1.161690 1.162264 1.162457 1.162264 1.161690 1.160748 1.159455 1.157838 1.155927 1.153755 1.151359 1.148774 1.146036 1.143179 1.140234 1.137231 1.134195 1.131148 1.134195 1.137231 1.140234 1.143179 1.146036 1.148774 1.151359 1.153755 1.155927 1.157838 1.159455 1.160748 1.161690 1.162264 1.162457 1.162264 1.161690 1.160748 1.159455 1.157838 1.155927 1.153755 1.151359 1.148774 1.146036 1.143179 1.140234 1.137231 1.134195 1.134195 1.137464 1.140733 1.143978 1.147170 1.150278 1.153267 1.156098 1.158730 1.161123 1.163234 1.165025 1.166459 1.167506 1.168144 1.168359 1.168144 1.167506 1.166459 1.165025 1.163234 1.161123 1.158730 1.156098 1.153267 1.150278 1.147170 1.143978 1.140733 1.137464 1.137231 1.140733 1.144248 1.147747 1.151203 1.154580 1.157838 1.160935 1.163824 1.166459 1.168790 1.170772 1.172363 1.173526 1.174236 1.174475 1.174236 1.173526 1.172363 1.170772 1.168790 1.166459 1.163824 1.160935 1.157838 1.154580 1.151203 1.147747 1.144248 1.140733 1.140234 1.143978 1.147747 1.151515 1.155249 1.158910 1.162457 1.165840 1.169007 1.171903 1.174475 1.176666 1.178429 1.179721 1.180510 1.180775 1.180510 1.179721 1.178429 1.176666 1.174475 1.171903 1.169007 1.165840 1.162457 1.158910 1.155249 1.151515 1.147747 1.143978 1.143179 1.147170 1.151203 1.155249 1.159273 1.163234 1.167085 1.170772 1.174236 1.177415 1.180246 1.182666 1.184616 1.186049 1.186924 1.187219 1.186924 1.186049 1.184616 1.182666 1.180246 1.177415 1.174236 1.170772 1.167085 1.163234 1.159273 1.155249 1.151203 1.147170 1.146036 1.150278 1.154580 1.158910 1.163234 1.167506 1.171675 1.175682 1.179461 1.182940 1.186049 1.188713 1.190866 1.192450 1.193420 1.193746 1.193420 1.192450 1.190866 1.188713 1.186049 1.182940 1.179461 1.175682 1.171675 1.167506 1.163234 1.158910 1.154580 1.150278 1.148774 1.153267 1.157838 1.162457 1.167085 1.171675 1.176172 1.180510 1.184616 1.188411 1.191812 1.194735 1.197104 1.198850 1.199920 1.200281 1.199920 1.198850 1.197104 1.194735 1.191812 1.188411 1.184616 1.180510 1.176172 1.171675 1.167085 1.162457 1.157838 1.153267 1.151359 1.156098 1.160935 1.165840 1.170772 1.175682 1.180510 1.185185 1.189627 1.193746 1.197450 1.200643 1.203237 1.205153 1.206328 1.206725 1.206328 1.205153 1.203237 1.200643 1.197450 1.193746 1.189627 1.185185 1.180510 1.175682 1.170772 1.165840 1.160935 1.156098 1.153755 1.158730 1.163824 1.169007 1.174236 1.179461 1.184616 1.189627 1.194404 1.198850 1.202860 1.206328 1.209152 1.211241 1.212525 1.212959 1.212525 1.211241 1.209152 1.206328 1.202860 1.198850 1.194404 1.189627 1.184616 1.179461 1.174236 1.169007 1.163824 1.158730 1.155927 1.161123 1.166459 1.171903 1.177415 1.182940 1.188411 1.193746 1.198850 1.203616 1.207928 1.211667 1.214719 1.216981 1.218374 1.218844 1.218374 1.216981 1.214719 1.211667 1.207928 1.203616 1.198850 1.193746 1.188411 1.182940 1.177415 1.171903 1.166459 1.161123 1.157838 1.163234 1.168790 1.174475 1.180246 1.186049 1.191812 1.197450 1.202860 1.207928 1.212525 1.216523 1.219793 1.222222 1.223719 1.224224 1.223719 1.222222 1.219793 1.216523 1.212525 1.207928 1.202860 1.197450 1.191812 1.186049 1.180246 1.174475 1.168790 1.163234 1.159455 1.165025 1.170772 1.176666 1.182666 1.188713 1.194735 1.200643 1.206328 1.211667 1.216523 1.220755 1.224224 1.226805 1.228396 1.228934 1.228396 1.226805 1.224224 1.220755 1.216523 1.211667 1.206328 1.200643 1.194735 1.188713 1.182666 1.176666 1.170772 1.165025 1.160748 1.166459 1.172363 1.178429 1.184616 1.190866 1.197104 1.203237 1.209152 1.214719 1.219793 1.224224 1.227862 1.230571 1.232244 1.232810 1.232244 1.230571 1.227862 1.224224 1.219793 1.214719 1.209152 1.203237 1.197104 1.190866 1.184616 1.178429 1.172363 1.166459 1.161690 1.167506 1.173526 1.179721 1.186049 1.192450 1.198850 1.205153 1.211241 1.216981 1.222222 1.226805 1.230571 1.233380 1.235115 1.235702 1.235115 1.233380 1.230571 1.226805 1.222222 1.216981 1.211241 1.205153 1.198850 1.192450 1.186049 1.179721 1.173526 1.167506 1.162264 1.168144 1.174236 1.180510 1.186924 1.193420 1.199920 1.206328 1.212525 1.218374 1.223719 1.228396 1.232244 1.235115 1.236890 1.237490 1.236890 1.235115 1.232244 1.228396 1.223719 1.218374 1.212525 1.206328 1.199920 1.193420 1.186924 1.180510 1.174236 1.168144 1.162457 1.168359 1.174475 1.180775 1.187219 1.193746 1.200281 1.206725 1.212959 1.218844 1.224224 1.228934 1.232810 1.235702 1.237490 1.238095 1.237490 1.235702 1.232810 1.228934 1.224224 1.218844 1.212959 1.206725 1.200281 1.193746 1.187219 1.180775 1.174475 1.168359 1.162264 1.168144 1.174236 1.180510 1.186924 1.193420 1.199920 1.206328 1.212525 1.218374 1.223719 1.228396 1.232244 1.235115 1.236890 1.237490 1.236890 1.235115 1.232244 1.228396 1.223719 1.218374 1.212525 1.206328 1.199920 1.193420 1.186924 1.180510 1.174236 1.168144 1.161690 1.167506 1.173526 1.179721 1.186049 1.192450 1.198850 1.205153 1.211241 1.216981 1.222222 1.226805 1.230571 1.233380 1.235115 1.235702 1.235115 1.233380 1.230571 1.226805 1.222222 1.216981 1.211241 1.205153 1.198850 1.192450 1.186049 1.179721 1.173526 1.167506 1.160748 1.166459 1.172363 1.178429 1.184616 1.190866 1.197104 1.203237 1.209152 1.214719 1.219793 1.224224 1.227862 1.230571 1.232244 1.232810 1.232244 1.230571 1.227862 1.224224 1.219793 1.214719 1.209152 1.203237 1.197104 1.190866 1.184616 1.178429 1.172363 1.166459 1.159455 1.165025 1.170772 1.176666 1.182666 1.188713 1.194735 1.200643 1.206328 1.211667 1.216523 1.220755 1.224224 1.226805 1.228396 1.228934 1.228396 1.226805 1.224224 1.220755 1.216523 1.211667 1.206328 1.200643 1.194735 1.188713 1.182666 1.176666 1.170772 1.165025 1.157838 1.163234 1.168790 1.174475 1.180246 1.186049 1.191812 1.197450 1.202860 1.207928 1.212525 1.216523 1.219793 1.222222 1.223719 1.224224 1.223719 1.222222 1.219793 1.216523 1.212525 1.207928 1.202860 1.197450 1.191812 1.186049 1.180246 1.174475 1.168790 1.163234 1.155927 1.161123 1.166459 1.171903 1.177415 1.182940 1.188411 1.193746 1.198850 1.203616 1.207928 1.211667 1.214719 1.216981 1.218374 1.218844 1.218374 1.216981 1.214719 1.211667 1.207928 1.203616 1.198850 1.193746 1.188411 1.182940 1.177415 1.171903 1.166459 1.161123 1.153755 1.158730 1.163824 1.169007 1.174236 1.179461 1.184616 1.189627 1.194404 1.198850 1.202860 1.206328 1.209152 1.211241 1.212525 1.212959 1.212525 1.211241 1.209152 1.206328 1.202860 1.198850 1.194404 1.189627 1.184616 1.179461 1.174236 1.169007 1.163824 1.158730 1.151359 1.156098 1.160935 1.165840 1.170772 1.175682 1.180510 1.185185 1.189627 1.193746 1.197450 1.200643 1.203237 1.205153 1.206328 1.206725 1.206328 1.205153 1.203237 1.200643 1.197450 1.193746 1.189627 1.185185 1.180510 1.175682 1.170772 1.165840 1.160935 1.156098 1.148774 1.153267 1.157838 1.162457 1.167085 1.171675 1.176172 1.180510 1.184616 1.188411 1.191812 1.194735 1.197104 1.198850 1.199920 1.200281 1.199920 1.198850 1.197104 1.194735 1.191812 1.188411 1.184616 1.180510 1.176172 1.171675 1.167085 1.162457 1.157838 1.153267 1.146036 1.150278 1.154580 1.158910 1.163234 1.167506 1.171675 1.175682 1.179461 1.182940 1.186049 1.188713 1.190866 1.192450 1.193420 1.193746 1.193420 1.192450 1.190866 1.188713 1.186049 1.182940 1.179461 1.175682 1.171675 1.167506 1.163234 1.158910 1.154580 1.150278 1.143179 1.147170 1.151203 1.155249 1.159273 1.163234 1.167085 1.170772 1.174236 1.177415 1.180246 1.182666 1.184616 1.186049 1.186924 1.187219 1.186924 1.186049 1.184616 1.182666 1.180246 1.177415 1.174236 1.170772 1.167085 1.163234 1.159273 1.155249 1.151203 1.147170 1.140234 1.143978 1.147747 1.151515 1.155249 1.158910 1.162457 1.165840 1.169007 1.171903 1.174475 1.176666 1.178429 1.179721 1.180510 1.180775 1.180510 1.179721 1.178429 1.176666 1.174475 1.171903 1.169007 1.165840 1.162457 1.158910 1.155249 1.151515 1.147747 1.143978 1.137231 1.140733 1.144248 1.147747 1.151203 1.154580 1.157838 1.160935 1.163824 1.166459 1.168790 1.170772 1.172363 1.173526 1.174236 1.174475 1.174236 1.173526 1.172363 1.170772 1.168790 1.166459 1.163824 1.160935 1.157838 1.154580 1.151203 1.147747 1.144248 1.140733 1.134195 1.137464 1.140733 1.143978 1.147170 1.150278 1.153267 1.156098 1.158730 1.161123 1.163234 1.165025 1.166459 1.167506 1.168144 1.168359 1.168144 1.167506 1.166459 1.165025 1.163234 1.161123 1.158730 1.156098 1.153267 1.150278 1.147170 1.143978 1.140733 1.137464 1.133978 1.137231 1.140483 1.143710 1.146884 1.149974 1.152944 1.155756 1.158371 1.160748 1.162844 1.164622 1.166045 1.167085 1.167718 1.167931 1.167718 1.167085 1.166045 1.164622 1.162844 1.160748 1.158371 1.155756 1.152944 1.149974 1.146884 1.143710 1.140483 1.137231 1.137231 1.140733 1.144248 1.147747 1.151203 1.154580 1.157838 1.160935 1.163824 1.166459 1.168790 1.170772 1.172363 1.173526 1.174236 1.174475 1.174236 1.173526 1.172363 1.170772 1.168790 1.166459 1.163824 1.160935 1.157838 1.154580 1.151203 1.147747 1.144248 1.140733 1.140483 1.144248 1.148039 1.151829 1.155587 1.159273 1.162844 1.166252 1.169443 1.172363 1.174955 1.177165 1.178943 1.180246 1.181042 1.181309 1.181042 1.180246 1.178943 1.177165 1.174955 1.172363 1.169443 1.166252 1.162844 1.159273 1.155587 1.151829 1.148039 1.144248 1.143710 1.147747 1.151829 1.155927 1.160005 1.164023 1.167931 1.171675 1.175196 1.178429 1.181309 1.183773 1.185759 1.187219 1.188111 1.188411 1.188111 1.187219 1.185759 1.183773 1.181309 1.178429 1.175196 1.171675 1.167931 1.164023 1.160005 1.155927 1.151829 1.147747 1.146884 1.151203 1.155587 1.160005 1.164421 1.168790 1.173058 1.177165 1.181042 1.184616 1.187812 1.190554 1.192772 1.194404 1.195403 1.195740 1.195403 1.194404 1.192772 1.190554 1.187812 1.184616 1.181042 1.177165 1.173058 1.168790 1.164421 1.160005 1.155587 1.151203 1.149974 1.154580 1.159273 1.164023 1.168790 1.173526 1.178174 1.182665 1.186924 1.190866 1.194404 1.197450 1.199920 1.201743 1.202860 1.203237 1.202860 1.201743 1.199920 1.197450 1.194404 1.190866 1.186924 1.182665 1.178174 1.173526 1.168790 1.164023 1.159273 1.154580 1.152944 1.157838 1.162844 1.167931 1.173058 1.178174 1.183216 1.188111 1.192772 1.197104 1.201008 1.204380 1.207123 1.209152 1.210398 1.210819 1.210398 1.209152 1.207123 1.204380 1.201008 1.197104 1.192772 1.188111 1.183216 1.178174 1.173058 1.167931 1.162844 1.157838 1.155756 1.160935 1.166252 1.171675 1.177165 1.182665 1.188111 1.193420 1.198497 1.203237 1.207524 1.211241 1.214275 1.216523 1.217907 1.218374 1.217907 1.216523 1.214275 1.211241 1.207524 1.203237 1.198497 1.193420 1.188111 1.182665 1.177165 1.171675 1.166252 1.160935 1.158371 1.163824 1.169443 1.175196 1.181042 1.186924 1.192772 1.198497 1.203997 1.209152 1.213833 1.217907 1.221241 1.223719 1.225246 1.225762 1.225246 1.223719 1.221241 1.217907 1.213833 1.209152 1.203997 1.198497 1.192772 1.186924 1.181042 1.175196 1.169443 1.163824 1.160748 1.166459 1.172363 1.178429 1.184616 1.190866 1.197104 1.203237 1.209152 1.214719 1.219794 1.224224 1.227862 1.230572 1.232244 1.232810 1.232244 1.230572 1.227862 1.224224 1.219794 1.214719 1.209152 1.203237 1.197104 1.190866 1.184616 1.178429 1.172363 1.166459 1.162844 1.168790 1.174955 1.181309 1.187812 1.194404 1.201008 1.207524 1.213833 1.219794 1.225246 1.230022 1.233954 1.236890 1.238705 1.239319 1.238705 1.236890 1.233954 1.230022 1.225246 1.219794 1.213833 1.207524 1.201008 1.194404 1.187812 1.181309 1.174955 1.168790 1.164622 1.170772 1.177165 1.183773 1.190554 1.197450 1.204380 1.211241 1.217907 1.224224 1.230022 1.235115 1.239319 1.242464 1.244412 1.245072 1.244412 1.242464 1.239319 1.235115 1.230022 1.224224 1.217907 1.211241 1.204380 1.197450 1.190554 1.183773 1.177165 1.170772 1.166045 1.172363 1.178943 1.185759 1.192772 1.199920 1.207123 1.214275 1.221241 1.227862 1.233954 1.239319 1.243757 1.247083 1.249145 1.249844 1.249145 1.247083 1.243757 1.239319 1.233954 1.227862 1.221241 1.214275 1.207123 1.199920 1.192772 1.185759 1.178943 1.172363 1.167085 1.173526 1.180246 1.187219 1.194404 1.201743 1.209152 1.216523 1.223719 1.230572 1.236890 1.242464 1.247083 1.250549 1.252699 1.253429 1.252699 1.250549 1.247083 1.242464 1.236890 1.230572 1.223719 1.216523 1.209152 1.201743 1.194404 1.187219 1.180246 1.173526 1.167718 1.174236 1.181042 1.188111 1.195403 1.202860 1.210398 1.217907 1.225246 1.232244 1.238705 1.244412 1.249145 1.252699 1.254906 1.255655 1.254906 1.252699 1.249145 1.244412 1.238705 1.232244 1.225246 1.217907 1.210398 1.202860 1.195403 1.188111 1.181042 1.174236 1.167931 1.174475 1.181309 1.188411 1.195740 1.203237 1.210819 1.218374 1.225762 1.232810 1.239319 1.245072 1.249844 1.253429 1.255655 1.256410 1.255655 1.253429 1.249844 1.245072 1.239319 1.232810 1.225762 1.218374 1.210819 1.203237 1.195740 1.188411 1.181309 1.174475 1.167718 1.174236 1.181042 1.188111 1.195403 1.202860 1.210398 1.217907 1.225246 1.232244 1.238705 1.244412 1.249145 1.252699 1.254906 1.255655 1.254906 1.252699 1.249145 1.244412 1.238705 1.232244 1.225246 1.217907 1.210398 1.202860 1.195403 1.188111 1.181042 1.174236 1.167085 1.173526 1.180246 1.187219 1.194404 1.201743 1.209152 1.216523 1.223719 1.230572 1.236890 1.242464 1.247083 1.250549 1.252699 1.253429 1.252699 1.250549 1.247083 1.242464 1.236890 1.230572 1.223719 1.216523 1.209152 1.201743 1.194404 1.187219 1.180246 1.173526 1.166045 1.172363 1.178943 1.185759 1.192772 1.199920 1.207123 1.214275 1.221241 1.227862 1.233954 1.239319 1.243757 1.247083 1.249145 1.249844 1.249145 1.247083 1.243757 1.239319 1.233954 1.227862 1.221241 1.214275 1.207123 1.199920 1.192772 1.185759 1.178943 1.172363 1.164622 1.170772 1.177165 1.183773 1.190554 1.197450 1.204380 1.211241 1.217907 1.224224 1.230022 1.235115 1.239319 1.242464 1.244412 1.245072 1.244412 1.242464 1.239319 1.235115 1.230022 1.224224 1.217907 1.211241 1.204380 1.197450 1.190554 1.183773 1.177165 1.170772 1.162844 1.168790 1.174955 1.181309 1.187812 1.194404 1.201008 1.207524 1.213833 1.219794 1.225246 1.230022 1.233954 1.236890 1.238705 1.239319 1.238705 1.236890 1.233954 1.230022 1.225246 1.219794 1.213833 1.207524 1.201008 1.194404 1.187812 1.181309 1.174955 1.168790 1.160748 1.166459 1.172363 1.178429 1.184616 1.190866 1.197104 1.203237 1.209152 1.214719 1.219794 1.224224 1.227862 1.230572 1.232244 1.232810 1.232244 1.230572 1.227862 1.224224 1.219794 1.214719 1.209152 1.203237 1.197104 1.190866 1.184616 1.178429 1.172363 1.166459 1.158371 1.163824 1.169443 1.175196 1.181042 1.186924 1.192772 1.198497 1.203997 1.209152 1.213833 1.217907 1.221241 1.223719 1.225246 1.225762 1.225246 1.223719 1.221241 1.217907 1.213833 1.209152 1.203997 1.198497 1.192772 1.186924 1.181042 1.175196 1.169443 1.163824 1.155756 1.160935 1.166252 1.171675 1.177165 1.182665 1.188111 1.193420 1.198497 1.203237 1.207524 1.211241 1.214275 1.216523 1.217907 1.218374 1.217907 1.216523 1.214275 1.211241 1.207524 1.203237 1.198497 1.193420 1.188111 1.182665 1.177165 1.171675 1.166252 1.160935 1.152944 1.157838 1.162844 1.167931 1.173058 1.178174 1.183216 1.188111 1.192772 1.197104 1.201008 1.204380 1.207123 1.209152 1.210398 1.210819 1.210398 1.209152 1.207123 1.204380 1.201008 1.197104 1.192772 1.188111 1.183216 1.178174 1.173058 1.167931 1.162844 1.157838 1.149974 1.154580 1.159273 1.164023 1.168790 1.173526 1.178174 1.182665 1.186924 1.190866 1.194404 1.197450 1.199920 1.201743 1.202860 1.203237 1.202860 1.201743 1.199920 1.197450 1.194404 1.190866 1.186924 1.182665 1.178174 1.173526 1.168790 1.164023 1.159273 1.154580 1.146884 1.151203 1.155587 1.160005 1.164421 1.168790 1.173058 1.177165 1.181042 1.184616 1.187812 1.190554 1.192772 1.194404 1.195403 1.195740 1.195403 1.194404 1.192772 1.190554 1.187812 1.184616 1.181042 1.177165 1.173058 1.168790 1.164421 1.160005 1.155587 1.151203 1.143710 1.147747 1.151829 1.155927 1.160005 1.164023 1.167931 1.171675 1.175196 1.178429 1.181309 1.183773 1.185759 1.187219 1.188111 1.188411 1.188111 1.187219 1.185759 1.183773 1.181309 1.178429 1.175196 1.171675 1.167931 1.164023 1.160005 1.155927 1.151829 1.147747 1.140483 1.144248 1.148039 1.151829 1.155587 1.159273 1.162844 1.166252 1.169443 1.172363 1.174955 1.177165 1.178943 1.180246 1.181042 1.181309 1.181042 1.180246 1.178943 1.177165 1.174955 1.172363 1.169443 1.166252 1.162844 1.159273 1.155587 1.151829 1.148039 1.144248 1.137231 1.140733 1.144248 1.147747 1.151203 1.154580 1.157838 1.160935 1.163824 1.166459 1.168790 1.170772 1.172363 1.173526 1.174236 1.174475 1.174236 1.173526 1.172363 1.170772 1.168790 1.166459 1.163824 1.160935 1.157838 1.154580 1.151203 1.147747 1.144248 1.140733 1.136768 1.140234 1.143710 1.147170 1.150585 1.153919 1.157135 1.160190 1.163039 1.165635 1.167931 1.169882 1.171448 1.172593 1.173292 1.173526 1.173292 1.172593 1.171448 1.169882 1.167931 1.165635 1.163039 1.160190 1.157135 1.153919 1.150585 1.147170 1.143710 1.140234 1.140234 1.143978 1.147747 1.151515 1.155249 1.158910 1.162457 1.165840 1.169007 1.171903 1.174475 1.176666 1.178429 1.179721 1.180510 1.180775 1.180510 1.179721 1.178429 1.176666 1.174475 1.171903 1.169007 1.165840 1.162457 1.158910 1.155249 1.151515 1.147747 1.143978 1.143710 1.147747 1.151829 1.155927 1.160005 1.164023 1.167931 1.171675 1.175196 1.178429 1.181309 1.183773 1.185759 1.187219 1.188111 1.188411 1.188111 1.187219 1.185759 1.183773 1.181309 1.178429 1.175196 1.171675 1.167931 1.164023 1.160005 1.155927 1.151829 1.147747 1.147170 1.151515 1.155927 1.160375 1.164823 1.169224 1.173526 1.177667 1.181578 1.185185 1.188411 1.191180 1.193420 1.195068 1.196078 1.196419 1.196078 1.195068 1.193420 1.191180 1.188411 1.185185 1.181578 1.177667 1.173526 1.169224 1.164823 1.160375 1.155927 1.151515 1.150585 1.155249 1.160005 1.164823 1.169662 1.174475 1.179201 1.183773 1.188111 1.192130 1.195740 1.198850 1.201374 1.203237 1.204380 1.204765 1.204380 1.203237 1.201374 1.198850 1.195740 1.192130 1.188111 1.183773 1.179201 1.174475 1.169662 1.164823 1.160005 1.155249 1.153919 1.158910 1.164023 1.169224 1.174475 1.179721 1.184900 1.189934 1.194735 1.199205 1.203237 1.206725 1.209565 1.211667 1.212959 1.213395 1.212959 1.211667 1.209565 1.206725 1.203237 1.199205 1.194735 1.189934 1.184900 1.179721 1.174475 1.169224 1.164023 1.158910 1.157135 1.162457 1.167931 1.173526 1.179201 1.184900 1.190554 1.196078 1.201374 1.206328 1.210819 1.214719 1.217907 1.220273 1.221730 1.222222 1.221730 1.220273 1.217907 1.214719 1.210819 1.206328 1.201374 1.196078 1.190554 1.184900 1.179201 1.173526 1.167931 1.162457 1.160190 1.165840 1.171675 1.177667 1.183773 1.189934 1.196078 1.202113 1.207928 1.213395 1.218374 1.222718 1.226281 1.228934 1.230572 1.231125 1.230572 1.228934 1.226281 1.222718 1.218374 1.213395 1.207928 1.202113 1.196078 1.189934 1.183773 1.177667 1.171675 1.165840 1.163039 1.169007 1.175196 1.181578 1.188111 1.194735 1.201374 1.207928 1.214275 1.220273 1.225762 1.230572 1.234532 1.237490 1.239319 1.239939 1.239319 1.237490 1.234532 1.230572 1.225762 1.220273 1.214275 1.207928 1.201374 1.194735 1.188111 1.181578 1.175196 1.169007 1.165635 1.171903 1.178429 1.185185 1.192130 1.199205 1.206328 1.213395 1.220273 1.226805 1.232810 1.238095 1.242464 1.245737 1.247765 1.248452 1.247765 1.245737 1.242464 1.238095 1.232810 1.226805 1.220273 1.213395 1.206328 1.199205 1.192130 1.185185 1.178429 1.171903 1.167931 1.174475 1.181309 1.188411 1.195740 1.203237 1.210819 1.218374 1.225762 1.232810 1.239319 1.245072 1.249844 1.253429 1.255655 1.256410 1.255655 1.253429 1.249844 1.245072 1.239319 1.232810 1.225762 1.218374 1.210819 1.203237 1.195740 1.188411 1.181309 1.174475 1.169882 1.176666 1.183773 1.191180 1.198850 1.206725 1.214719 1.222718 1.230572 1.238095 1.245072 1.251259 1.256410 1.260290 1.262703 1.263523 1.262703 1.260290 1.256410 1.251259 1.245072 1.238095 1.230572 1.222718 1.214719 1.206725 1.198850 1.191180 1.183773 1.176666 1.171448 1.178429 1.185759 1.193420 1.201374 1.209565 1.217907 1.226281 1.234532 1.242464 1.249844 1.256410 1.261891 1.266029 1.268608 1.269484 1.268608 1.266029 1.261891 1.256410 1.249844 1.242464 1.234532 1.226281 1.217907 1.209565 1.201374 1.193420 1.185759 1.178429 1.172593 1.179721 1.187219 1.195068 1.203237 1.211667 1.220273 1.228934 1.237490 1.245737 1.253429 1.260290 1.266029 1.270369 1.273077 1.273998 1.273077 1.270369 1.266029 1.260290 1.253429 1.245737 1.237490 1.228934 1.220273 1.211667 1.203237 1.195068 1.187219 1.179721 1.173292 1.180510 1.188111 1.196078 1.204380 1.212959 1.221730 1.230572 1.239319 1.247765 1.255655 1.262703 1.268608 1.273077 1.275869 1.276818 1.275869 1.273077 1.268608 1.262703 1.255655 1.247765 1.239319 1.230572 1.221730 1.212959 1.204380 1.196078 1.188111 1.180510 1.173526 1.180775 1.188411 1.196419 1.204765 1.213395 1.222222 1.231125 1.239939 1.248452 1.256410 1.263523 1.269484 1.273998 1.276818 1.277778 1.276818 1.273998 1.269484 1.263523 1.256410 1.248452 1.239939 1.231125 1.222222 1.213395 1.204765 1.196419 1.188411 1.180775 1.173292 1.180510 1.188111 1.196078 1.204380 1.212959 1.221730 1.230572 1.239319 1.247765 1.255655 1.262703 1.268608 1.273077 1.275869 1.276818 1.275869 1.273077 1.268608 1.262703 1.255655 1.247765 1.239319 1.230572 1.221730 1.212959 1.204380 1.196078 1.188111 1.180510 1.172593 1.179721 1.187219 1.195068 1.203237 1.211667 1.220273 1.228934 1.237490 1.245737 1.253429 1.260290 1.266029 1.270369 1.273077 1.273998 1.273077 1.270369 1.266029 1.260290 1.253429 1.245737 1.237490 1.228934 1.220273 1.211667 1.203237 1.195068 1.187219 1.179721 1.171448 1.178429 1.185759 1.193420 1.201374 1.209565 1.217907 1.226281 1.234532 1.242464 1.249844 1.256410 1.261891 1.266029 1.268608 1.269484 1.268608 1.266029 1.261891 1.256410 1.249844 1.242464 1.234532 1.226281 1.217907 1.209565 1.201374 1.193420 1.185759 1.178429 1.169882 1.176666 1.183773 1.191180 1.198850 1.206725 1.214719 1.222718 1.230572 1.238095 1.245072 1.251259 1.256410 1.260290 1.262703 1.263523 1.262703 1.260290 1.256410 1.251259 1.245072 1.238095 1.230572 1.222718 1.214719 1.206725 1.198850 1.191180 1.183773 1.176666 1.167931 1.174475 1.181309 1.188411 1.195740 1.203237 1.210819 1.218374 1.225762 1.232810 