# vtk DataFile Version 2.0
one liner comment goes here
ASCII
DATASET STRUCTURED_POINTS
DIMENSIONS 30 30 30
ORIGIN 0 0 0
SPACING 1 1 1
POINT_DATA 27000
VECTORS anyoldnameforthisvolume float
-0.651424 0.651424 0.651424 -0.623062 0.667566 0.667566 -0.592520 0.683676 0.683676 -0.559706 0.699633 0.699633 -0.524550 0.715296 0.715296 -0.487007 0.730511 0.730511 -0.447064 0.745107 0.745107 -0.404746 0.758898 0.758898 -0.360123 0.771693 0.771693 -0.313318 0.783294 0.783294 -0.264503 0.793510 0.793510 -0.213909 0.802158 0.802158 -0.161814 0.809072 0.809072 -0.108549 0.814117 0.814117 -0.054479 0.817187 0.817187 0.000000 0.818218 0.818218 0.054479 0.817187 0.817187 0.108549 0.814117 0.814117 0.161814 0.809072 0.809072 0.213909 0.802158 0.802158 0.264503 0.793510 0.793510 0.313318 0.783294 0.783294 0.360123 0.771693 0.771693 0.404746 0.758898 0.758898 0.447064 0.745107 0.745107 0.487007 0.730511 0.730511 0.524550 0.715296 0.715296 0.559706 0.699633 0.699633 0.592520 0.683676 0.683676 0.623062 0.667566 0.667566 -0.667566 0.623062 0.667566 -0.639254 0.639254 0.684915 -0.608648 0.655467 0.702286 -0.575640 0.671580 0.719550 -0.540141 0.687452 0.736556 -0.502087 0.702922 0.753131 -0.461451 0.717812 0.769084 -0.418244 0.731927 0.784208 -0.372531 0.745063 0.798281 -0.324432 0.757008 0.811080 -0.274126 0.767553 0.822378 -0.221857 0.776500 0.831964 -0.167929 0.783667 0.839643 -0.112701 0.788904 0.845254 -0.056578 0.792094 0.848672 0.000000 0.793165 0.849820 0.056578 0.792094 0.848672 0.112701 0.788904 0.845254 0.167929 0.783667 0.839643 0.221857 0.776500 0.831964 0.274126 0.767553 0.822378 0.324432 0.757008 0.811080 0.372531 0.745063 0.798281 0.418244 0.731927 0.784208 0.461451 0.717812 0.769084 0.502087 0.702922 0.753131 0.540141 0.687452 0.736556 0.575640 0.671580 0.719550 0.608648 0.655467 0.702286 0.639254 0.639254 0.684915 -0.683676 0.592520 0.683676 -0.655467 0.608648 0.702286 -0.624853 0.624853 0.720985 -0.591706 0.641015 0.739633 -0.555915 0.656991 0.758066 -0.517398 0.672617 0.776096 -0.476106 0.687709 0.793510 -0.432040 0.702064 0.810074 -0.385251 0.715467 0.825538 -0.335857 0.727691 0.839643 -0.284043 0.738512 0.852130 -0.230066 0.747715 0.862748 -0.174255 0.755103 0.871273 -0.117001 0.760509 0.877510 -0.058754 0.763806 0.881314 0.000000 0.764914 0.882593 0.058754 0.763806 0.881314 0.117001 0.760509 0.877510 0.174255 0.755103 0.871273 0.230066 0.747715 0.862748 0.284043 0.738512 0.852130 0.335857 0.727691 0.839643 0.385251 0.715467 0.825538 0.432040 0.702064 0.810074 0.476106 0.687709 0.793510 0.517398 0.672617 0.776096 0.555915 0.656991 0.758066 0.591706 0.641015 0.739633 0.624853 0.624853 0.720985 0.655467 0.608648 0.702286 -0.699633 0.559706 0.699633 -0.671580 0.575640 0.719550 -0.641015 0.591706 0.739633 -0.607786 0.607786 0.759732 -0.571759 0.623737 0.779672 -0.532830 0.639396 0.799245 -0.490931 0.654574 0.818218 -0.446041 0.669062 0.836327 -0.398203 0.682633 0.853291 -0.347525 0.695050 0.868813 -0.294198 0.706074 0.882593 -0.238491 0.715473 0.894341 -0.180758 0.723033 0.903792 -0.121429 0.728575 0.910719 -0.060997 0.731958 0.914948 0.000000 0.733096 0.916370 0.060997 0.731958 0.914948 0.121429 0.728575 0.910719 0.180758 0.723033 0.903792 0.238491 0.715473 0.894341 0.294198 0.706074 0.882593 0.347525 0.695050 0.868813 0.398203 0.682633 0.853291 0.446041 0.669062 0.836327 0.490931 0.654574 0.818218 0.532830 0.639396 0.799245 0.571759 0.623737 0.779672 0.607786 0.607786 0.759732 0.641015 0.591706 0.739633 0.671580 0.575640 0.719550 -0.715296 0.524550 0.715296 -0.687452 0.540141 0.736556 -0.656991 0.555915 0.758066 -0.623737 0.571759 0.779672 -0.587535 0.587535 0.801184 -0.548252 0.603077 0.822378 -0.505798 0.618198 0.842997 -0.460132 0.632682 0.862748 -0.411280 0.646297 0.881314 -0.359343 0.658795 0.898357 -0.304511 0.669924 0.913532 -0.247068 0.679436 0.926504 -0.187392 0.687106 0.936962 -0.125952 0.692737 0.944641 -0.063289 0.696179 0.949334 0.000000 0.697337 0.950914 0.063289 0.696179 0.949334 0.125952 0.692737 0.944641 0.187392 0.687106 0.936962 0.247068 0.679436 0.926504 0.304511 0.669924 0.913532 0.359343 0.658795 0.898357 0.411280 0.646297 0.881314 0.460132 0.632682 0.862748 0.505798 0.618198 0.842997 0.548252 0.603077 0.822378 0.587535 0.587535 0.801184 0.623737 0.571759 0.779672 0.656991 0.555915 0.758066 0.687452 0.540141 0.736556 -0.730511 0.487007 0.730511 -0.702922 0.502087 0.753131 -0.672617 0.517398 0.776096 -0.639396 0.532830 0.799245 -0.603077 0.548252 0.822378 -0.563503 0.563503 0.845254 -0.520554 0.578393 0.867590 -0.474168 0.592710 0.889065 -0.424350 0.606214 0.909321 -0.371191 0.618652 0.927978 -0.314880 0.629761 0.944641 -0.255713 0.639282 0.958923 -0.194093 0.646976 0.970464 -0.130527 0.652635 0.978952 -0.065610 0.656098 0.984147 0.000000 0.657264 0.985896 0.065610 0.656098 0.984147 0.130527 0.652635 0.978952 0.194093 0.646976 0.970464 0.255713 0.639282 0.958923 0.314880 0.629761 0.944641 0.371191 0.618652 0.927978 0.424350 0.606214 0.909321 0.474168 0.592710 0.889065 0.520554 0.578393 0.867590 0.563503 0.563503 0.845254 0.603077 0.548252 0.822378 0.639396 0.532830 0.799245 0.672617 0.517398 0.776096 0.702922 0.502087 0.753131 -0.745107 0.447064 0.745107 -0.717812 0.461451 0.769084 -0.687709 0.476106 0.793510 -0.654574 0.490931 0.818218 -0.618198 0.505798 0.842997 -0.578393 0.520554 0.867590 -0.535015 0.535015 0.891692 -0.487972 0.548969 0.914948 -0.437249 0.562177 0.936962 -0.382922 0.574384 0.957306 -0.325177 0.585319 0.975532 -0.264319 0.594718 0.991197 -0.200777 0.602331 1.003884 -0.135098 0.607940 1.013233 -0.067931 0.611377 1.018962 0.000000 0.612535 1.020892 0.067931 0.611377 1.018962 0.135098 0.607940 1.013233 0.200777 0.602331 1.003884 0.264319 0.594718 0.991197 0.325177 0.585319 0.975532 0.382922 0.574384 0.957306 0.437249 0.562177 0.936962 0.487972 0.548969 0.914948 0.535015 0.535015 0.891692 0.578393 0.520554 0.867590 0.618198 0.505798 0.842997 0.654574 0.490931 0.818218 0.687709 0.476106 0.793510 0.717812 0.461451 0.769084 -0.758898 0.404746 0.758898 -0.731927 0.418244 0.784208 -0.702064 0.432040 0.810074 -0.669062 0.446041 0.836327 -0.632682 0.460132 0.862748 -0.592710 0.474168 0.889065 -0.548969 0.487972 0.914948 -0.501340 0.501340 0.940013 -0.449783 0.514038 0.963821 -0.394359 0.525811 0.985896 -0.335245 0.536392 1.005735 -0.272755 0.545510 1.022832 -0.207342 0.552913 1.036712 -0.139594 0.558378 1.046958 -0.070216 0.561730 1.053244 0.000000 0.562860 1.055363 0.070216 0.561730 1.053244 0.139594 0.558378 1.046958 0.207342 0.552913 1.036712 0.272755 0.545510 1.022832 0.335245 0.536392 1.005735 0.394359 0.525811 0.985896 0.449783 0.514038 0.963821 0.501340 0.501340 0.940013 0.548969 0.487972 0.914948 0.592710 0.474168 0.889065 0.632682 0.460132 0.862748 0.669062 0.446041 0.836327 0.702064 0.432040 0.810074 0.731927 0.418244 0.784208 -0.771693 0.360123 0.771693 -0.745063 0.372531 0.798281 -0.715467 0.385251 0.825538 -0.682633 0.398203 0.853291 -0.646297 0.411280 0.881314 -0.606214 0.424350 0.909321 -0.562177 0.437249 0.936962 -0.514038 0.449783 0.963821 -0.461730 0.461730 0.989421 -0.405293 0.472842 1.013233 -0.344899 0.482858 1.034696 -0.280865 0.491514 1.053244 -0.213667 0.498557 1.068336 -0.143933 0.503765 1.079496 -0.072423 0.506964 1.086352 0.000000 0.508044 1.088665 0.072423 0.506964 1.086352 0.143933 0.503765 1.079496 0.213667 0.498557 1.068336 0.280865 0.491514 1.053244 0.344899 0.482858 1.034696 0.405293 0.472842 1.013233 0.461730 0.461730 0.989421 0.514038 0.449783 0.963821 0.562177 0.437249 0.936962 0.606214 0.424350 0.909321 0.646297 0.411280 0.881314 0.682633 0.398203 0.853291 0.715467 0.385251 0.825538 0.745063 0.372531 0.798281 -0.783294 0.313318 0.783294 -0.757008 0.324432 0.811080 -0.727691 0.335857 0.839643 -0.695050 0.347525 0.868813 -0.658795 0.359343 0.898357 -0.618652 0.371191 0.927978 -0.574384 0.382922 0.957306 -0.525811 0.394359 0.985896 -0.472842 0.405293 1.013233 -0.415495 0.415495 1.038738 -0.353931 0.424718 1.061794 -0.288471 0.432707 1.081768 -0.219611 0.439222 1.098056 -0.148016 0.444049 1.110122 -0.074503 0.447017 1.117543 0.000000 0.448019 1.120048 0.074503 0.447017 1.117543 0.148016 0.444049 1.110122 0.219611 0.439222 1.098056 0.288471 0.432707 1.081768 0.353931 0.424718 1.061794 0.415495 0.415495 1.038738 0.472842 0.405293 1.013233 0.525811 0.394359 0.985896 0.574384 0.382922 0.957306 0.618652 0.371191 0.927978 0.658795 0.359343 0.898357 0.695050 0.347525 0.868813 0.727691 0.335857 0.839643 0.757008 0.324432 0.811080 -0.793510 0.264503 0.793510 -0.767553 0.274126 0.822378 -0.738512 0.284043 0.852130 -0.706074 0.294198 0.882593 -0.669924 0.304511 0.913532 -0.629761 0.314880 0.944641 -0.585319 0.325177 0.975532 -0.536392 0.335245 1.005735 -0.482858 0.344899 1.034696 -0.424718 0.353931 1.061794 -0.362117 0.362117 1.086352 -0.295381 0.369226 1.107679 -0.225021 0.375035 1.125105 -0.151738 0.379345 1.138034 -0.076400 0.381998 1.145995 0.000000 0.382894 1.148683 0.076400 0.381998 1.145995 0.151738 0.379345 1.138034 0.225021 0.375035 1.125105 0.295381 0.369226 1.107679 0.362117 0.362117 1.086352 0.424718 0.353931 1.061794 0.482858 0.344899 1.034696 0.536392 0.335245 1.005735 0.585319 0.325177 0.975532 0.629761 0.314880 0.944641 0.669924 0.304511 0.913532 0.706074 0.294198 0.882593 0.738512 0.284043 0.852130 0.767553 0.274126 0.822378 -0.802158 0.213909 0.802158 -0.776500 0.221857 0.831964 -0.747715 0.230066 0.862748 -0.715473 0.238491 0.894341 -0.679436 0.247068 0.926504 -0.639282 0.255713 0.958923 -0.594718 0.264319 0.991197 -0.545510 0.272755 1.022832 -0.491514 0.280865 1.053244 -0.432707 0.288471 1.081768 -0.369226 0.295381 1.107679 -0.301394 0.301394 1.130227 -0.229737 0.306316 1.148683 -0.154986 0.309972 1.162396 -0.078057 0.312226 1.170848 0.000000 0.312988 1.173704 0.078057 0.312226 1.170848 0.154986 0.309972 1.162396 0.229737 0.306316 1.148683 0.301394 0.301394 1.130227 0.369226 0.295381 1.107679 0.432707 0.288471 1.081768 0.491514 0.280865 1.053244 0.545510 0.272755 1.022832 0.594718 0.264319 0.991197 0.639282 0.255713 0.958923 0.679436 0.247068 0.926504 0.715473 0.238491 0.894341 0.747715 0.230066 0.862748 0.776500 0.221857 0.831964 -0.809072 0.161814 0.809072 -0.783667 0.167929 0.839643 -0.755103 0.174255 0.871273 -0.723033 0.180758 0.903792 -0.687106 0.187392 0.936962 -0.646976 0.194093 0.970464 -0.602331 0.200777 1.003884 -0.552913 0.207342 1.036712 -0.498557 0.213667 1.068336 -0.439222 0.219611 1.098056 -0.375035 0.225021 1.125105 -0.306316 0.229737 1.148683 -0.233602 0.233602 1.168012 -0.157652 0.236478 1.182390 -0.079417 0.238252 1.191258 0.000000 0.238851 1.194256 0.079417 0.238252 1.191258 0.157652 0.236478 1.182390 0.233602 0.233602 1.168012 0.306316 0.229737 1.148683 0.375035 0.225021 1.125105 0.439222 0.219611 1.098056 0.498557 0.213667 1.068336 0.552913 0.207342 1.036712 0.602331 0.200777 1.003884 0.646976 0.194093 0.970464 0.687106 0.187392 0.936962 0.723033 0.180758 0.903792 0.755103 0.174255 0.871273 0.783667 0.167929 0.839643 -0.814117 0.108549 0.814117 -0.788904 0.112701 0.845254 -0.760509 0.117001 0.877510 -0.728575 0.121429 0.910719 -0.692737 0.125952 0.944641 -0.652635 0.130527 0.978952 -0.607940 0.135098 1.013233 -0.558378 0.139594 1.046958 -0.503765 0.143933 1.079496 -0.444049 0.148016 1.110122 -0.379345 0.151738 1.138034 -0.309972 0.154986 1.162396 -0.236478 0.157652 1.182390 -0.159637 0.159637 1.197275 -0.080431 0.160862 1.206462 0.000000 0.161276 1.209569 0.080431 0.160862 1.206462 0.159637 0.159637 1.197275 0.236478 0.157652 1.182390 0.309972 0.154986 1.162396 0.379345 0.151738 1.138034 0.444049 0.148016 1.110122 0.503765 0.143933 1.079496 0.558378 0.139594 1.046958 0.607940 0.135098 1.013233 0.652635 0.130527 0.978952 0.692737 0.125952 0.944641 0.728575 0.121429 0.910719 0.760509 0.117001 0.877510 0.788904 0.112701 0.845254 -0.817187 0.054479 0.817187 -0.792094 0.056578 0.848672 -0.763806 0.058754 0.881314 -0.731958 0.060997 0.914948 -0.696179 0.063289 0.949334 -0.656098 0.065610 0.984147 -0.611377 0.067931 1.018962 -0.561730 0.070216 1.053244 -0.506964 0.072423 1.086352 -0.447017 0.074503 1.117543 -0.381998 0.076400 1.145995 -0.312226 0.078057 1.170848 -0.238252 0.079417 1.191258 -0.160862 0.080431 1.206462 -0.081057 0.081057 1.215849 0.000000 0.081268 1.219024 0.081057 0.081057 1.215849 0.160862 0.080431 1.206462 0.238252 0.079417 1.191258 0.312226 0.078057 1.170848 0.381998 0.076400 1.145995 0.447017 0.074503 1.117543 0.506964 0.072423 1.086352 0.561730 0.070216 1.053244 0.611377 0.067931 1.018962 0.656098 0.065610 0.984147 0.696179 0.063289 0.949334 0.731958 0.060997 0.914948 0.763806 0.058754 0.881314 0.792094 0.056578 0.848672 -0.818218 0.000000 0.818218 -0.793165 0.000000 0.849820 -0.764914 0.000000 0.882593 -0.733096 0.000000 0.916370 -0.697337 0.000000 0.950914 -0.657264 0.000000 0.985896 -0.612535 0.000000 1.020892 -0.562860 0.000000 1.055363 -0.508044 0.000000 1.088665 -0.448019 0.000000 1.120048 -0.382894 0.000000 1.148683 -0.312988 0.000000 1.173704 -0.238851 0.000000 1.194256 -0.161276 0.000000 1.209569 -0.081268 0.000000 1.219024 0.000000 0.000000 1.222222 0.081268 0.000000 1.219024 0.161276 0.000000 1.209569 0.238851 0.000000 1.194256 0.312988 0.000000 1.173704 0.382894 0.000000 1.148683 0.448019 0.000000 1.120048 0.508044 0.000000 1.088665 0.562860 0.000000 1.055363 0.612535 0.000000 1.020892 0.657264 0.000000 0.985896 0.697337 0.000000 0.950914 0.733096 0.000000 0.916370 0.764914 0.000000 0.882593 0.793165 0.000000 0.849820 -0.817187 -0.054479 0.817187 -0.792094 -0.056578 0.848672 -0.763806 -0.058754 0.881314 -0.731958 -0.060997 0.914948 -0.696179 -0.063289 0.949334 -0.656098 -0.065610 0.984147 -0.611377 -0.067931 1.018962 -0.561730 -0.070216 1.053244 -0.506964 -0.072423 1.086352 -0.447017 -0.074503 1.117543 -0.381998 -0.076400 1.145995 -0.312226 -0.078057 1.170848 -0.238252 -0.079417 1.191258 -0.160862 -0.080431 1.206462 -0.081057 -0.081057 1.215849 0.000000 -0.081268 1.219024 0.081057 -0.081057 1.215849 0.160862 -0.080431 1.206462 0.238252 -0.079417 1.191258 0.312226 -0.078057 1.170848 0.381998 -0.076400 1.145995 0.447017 -0.074503 1.117543 0.506964 -0.072423 1.086352 0.561730 -0.070216 1.053244 0.611377 -0.067931 1.018962 0.656098 -0.065610 0.984147 0.696179 -0.063289 0.949334 0.731958 -0.060997 0.914948 0.763806 -0.058754 0.881314 0.792094 -0.056578 0.848672 -0.814117 -0.108549 0.814117 -0.788904 -0.112701 0.845254 -0.760509 -0.117001 0.877510 -0.728575 -0.121429 0.910719 -0.692737 -0.125952 0.944641 -0.652635 -0.130527 0.978952 -0.607940 -0.135098 1.013233 -0.558378 -0.139594 1.046958 -0.503765 -0.143933 1.079496 -0.444049 -0.148016 1.110122 -0.379345 -0.151738 1.138034 -0.309972 -0.154986 1.162396 -0.236478 -0.157652 1.182390 -0.159637 -0.159637 1.197275 -0.080431 -0.160862 1.206462 0.000000 -0.161276 1.209569 0.080431 -0.160862 1.206462 0.159637 -0.159637 1.197275 0.236478 -0.157652 1.182390 0.309972 -0.154986 1.162396 0.379345 -0.151738 1.138034 0.444049 -0.148016 1.110122 0.503765 -0.143933 1.079496 0.558378 -0.139594 1.046958 0.607940 -0.135098 1.013233 0.652635 -0.130527 0.978952 0.692737 -0.125952 0.944641 0.728575 -0.121429 0.910719 0.760509 -0.117001 0.877510 0.788904 -0.112701 0.845254 -0.809072 -0.161814 0.809072 -0.783667 -0.167929 0.839643 -0.755103 -0.174255 0.871273 -0.723033 -0.180758 0.903792 -0.687106 -0.187392 0.936962 -0.646976 -0.194093 0.970464 -0.602331 -0.200777 1.003884 -0.552913 -0.207342 1.036712 -0.498557 -0.213667 1.068336 -0.439222 -0.219611 1.098056 -0.375035 -0.225021 1.125105 -0.306316 -0.229737 1.148683 -0.233602 -0.233602 1.168012 -0.157652 -0.236478 1.182390 -0.079417 -0.238252 1.191258 0.000000 -0.238851 1.194256 0.079417 -0.238252 1.191258 0.157652 -0.236478 1.182390 0.233602 -0.233602 1.168012 0.306316 -0.229737 1.148683 0.375035 -0.225021 1.125105 0.439222 -0.219611 1.098056 0.498557 -0.213667 1.068336 0.552913 -0.207342 1.036712 0.602331 -0.200777 1.003884 0.646976 -0.194093 0.970464 0.687106 -0.187392 0.936962 0.723033 -0.180758 0.903792 0.755103 -0.174255 0.871273 0.783667 -0.167929 0.839643 -0.802158 -0.213909 0.802158 -0.776500 -0.221857 0.831964 -0.747715 -0.230066 0.862748 -0.715473 -0.238491 0.894341 -0.679436 -0.247068 0.926504 -0.639282 -0.255713 0.958923 -0.594718 -0.264319 0.991197 -0.545510 -0.272755 1.022832 -0.491514 -0.280865 1.053244 -0.432707 -0.288471 1.081768 -0.369226 -0.295381 1.107679 -0.301394 -0.301394 1.130227 -0.229737 -0.306316 1.148683 -0.154986 -0.309972 1.162396 -0.078057 -0.312226 1.170848 0.000000 -0.312988 1.173704 0.078057 -0.312226 1.170848 0.154986 -0.309972 1.162396 0.229737 -0.306316 1.148683 0.301394 -0.301394 1.130227 0.369226 -0.295381 1.107679 0.432707 -0.288471 1.081768 0.491514 -0.280865 1.053244 0.545510 -0.272755 1.022832 0.594718 -0.264319 0.991197 0.639282 -0.255713 0.958923 0.679436 -0.247068 0.926504 0.715473 -0.238491 0.894341 0.747715 -0.230066 0.862748 0.776500 -0.221857 0.831964 -0.793510 -0.264503 0.793510 -0.767553 -0.274126 0.822378 -0.738512 -0.284043 0.852130 -0.706074 -0.294198 0.882593 -0.669924 -0.304511 0.913532 -0.629761 -0.314880 0.944641 -0.585319 -0.325177 0.975532 -0.536392 -0.335245 1.005735 -0.482858 -0.344899 1.034696 -0.424718 -0.353931 1.061794 -0.362117 -0.362117 1.086352 -0.295381 -0.369226 1.107679 -0.225021 -0.375035 1.125105 -0.151738 -0.379345 1.138034 -0.076400 -0.381998 1.145995 0.000000 -0.382894 1.148683 0.076400 -0.381998 1.145995 0.151738 -0.379345 1.138034 0.225021 -0.375035 1.125105 0.295381 -0.369226 1.107679 0.362117 -0.362117 1.086352 0.424718 -0.353931 1.061794 0.482858 -0.344899 1.034696 0.536392 -0.335245 1.005735 0.585319 -0.325177 0.975532 0.629761 -0.314880 0.944641 0.669924 -0.304511 0.913532 0.706074 -0.294198 0.882593 0.738512 -0.284043 0.852130 0.767553 -0.274126 0.822378 -0.783294 -0.313318 0.783294 -0.757008 -0.324432 0.811080 -0.727691 -0.335857 0.839643 -0.695050 -0.347525 0.868813 -0.658795 -0.359343 0.898357 -0.618652 -0.371191 0.927978 -0.574384 -0.382922 0.957306 -0.525811 -0.394359 0.985896 -0.472842 -0.405293 1.013233 -0.415495 -0.415495 1.038738 -0.353931 -0.424718 1.061794 -0.288471 -0.432707 1.081768 -0.219611 -0.439222 1.098056 -0.148016 -0.444049 1.110122 -0.074503 -0.447017 1.117543 0.000000 -0.448019 1.120048 0.074503 -0.447017 1.117543 0.148016 -0.444049 1.110122 0.219611 -0.439222 1.098056 0.288471 -0.432707 1.081768 0.353931 -0.424718 1.061794 0.415495 -0.415495 1.038738 0.472842 -0.405293 1.013233 0.525811 -0.394359 0.985896 0.574384 -0.382922 0.957306 0.618652 -0.371191 0.927978 0.658795 -0.359343 0.898357 0.695050 -0.347525 0.868813 0.727691 -0.335857 0.839643 0.757008 -0.324432 0.811080 -0.771693 -0.360123 0.771693 -0.745063 -0.372531 0.798281 -0.715467 -0.385251 0.825538 -0.682633 -0.398203 0.853291 -0.646297 -0.411280 0.881314 -0.606214 -0.424350 0.909321 -0.562177 -0.437249 0.936962 -0.514038 -0.449783 0.963821 -0.461730 -0.461730 0.989421 -0.405293 -0.472842 1.013233 -0.344899 -0.482858 1.034696 -0.280865 -0.491514 1.053244 -0.213667 -0.498557 1.068336 -0.143933 -0.503765 1.079496 -0.072423 -0.506964 1.086352 0.000000 -0.508044 1.088665 0.072423 -0.506964 1.086352 0.143933 -0.503765 1.079496 0.213667 -0.498557 1.068336 0.280865 -0.491514 1.053244 0.344899 -0.482858 1.034696 0.405293 -0.472842 1.013233 0.461730 -0.461730 0.989421 0.514038 -0.449783 0.963821 0.562177 -0.437249 0.936962 0.606214 -0.424350 0.909321 0.646297 -0.411280 0.881314 0.682633 -0.398203 0.853291 0.715467 -0.385251 0.825538 0.745063 -0.372531 0.798281 -0.758898 -0.404746 0.758898 -0.731927 -0.418244 0.784208 -0.702064 -0.432040 0.810074 -0.669062 -0.446041 0.836327 -0.632682 -0.460132 0.862748 -0.592710 -0.474168 0.889065 -0.548969 -0.487972 0.914948 -0.501340 -0.501340 0.940013 -0.449783 -0.514038 0.963821 -0.394359 -0.525811 0.985896 -0.335245 -0.536392 1.005735 -0.272755 -0.545510 1.022832 -0.207342 -0.552913 1.036712 -0.139594 -0.558378 1.046958 -0.070216 -0.561730 1.053244 0.000000 -0.562860 1.055363 0.070216 -0.561730 1.053244 0.139594 -0.558378 1.046958 0.207342 -0.552913 1.036712 0.272755 -0.545510 1.022832 0.335245 -0.536392 1.005735 0.394359 -0.525811 0.985896 0.449783 -0.514038 0.963821 0.501340 -0.501340 0.940013 0.548969 -0.487972 0.914948 0.592710 -0.474168 0.889065 0.632682 -0.460132 0.862748 0.669062 -0.446041 0.836327 0.702064 -0.432040 0.810074 0.731927 -0.418244 0.784208 -0.745107 -0.447064 0.745107 -0.717812 -0.461451 0.769084 -0.687709 -0.476106 0.793510 -0.654574 -0.490931 0.818218 -0.618198 -0.505798 0.842997 -0.578393 -0.520554 0.867590 -0.535015 -0.535015 0.891692 -0.487972 -0.548969 0.914948 -0.437249 -0.562177 0.936962 -0.382922 -0.574384 0.957306 -0.325177 -0.585319 0.975532 -0.264319 -0.594718 0.991197 -0.200777 -0.602331 1.003884 -0.135098 -0.607940 1.013233 -0.067931 -0.611377 1.018962 0.000000 -0.612535 1.020892 0.067931 -0.611377 1.018962 0.135098 -0.607940 1.013233 0.200777 -0.602331 1.003884 0.264319 -0.594718 0.991197 0.325177 -0.585319 0.975532 0.382922 -0.574384 0.957306 0.437249 -0.562177 0.936962 0.487972 -0.548969 0.914948 0.535015 -0.535015 0.891692 0.578393 -0.520554 0.867590 0.618198 -0.505798 0.842997 0.654574 -0.490931 0.818218 0.687709 -0.476106 0.793510 0.717812 -0.461451 0.769084 -0.730511 -0.487007 0.730511 -0.702922 -0.502087 0.753131 -0.672617 -0.517398 0.776096 -0.639396 -0.532830 0.799245 -0.603077 -0.548252 0.822378 -0.563503 -0.563503 0.845254 -0.520554 -0.578393 0.867590 -0.474168 -0.592710 0.889065 -0.424350 -0.606214 0.909321 -0.371191 -0.618652 0.927978 -0.314880 -0.629761 0.944641 -0.255713 -0.639282 0.958923 -0.194093 -0.646976 0.970464 -0.130527 -0.652635 0.978952 -0.065610 -0.656098 0.984147 0.000000 -0.657264 0.985896 0.065610 -0.656098 0.984147 0.130527 -0.652635 0.978952 0.194093 -0.646976 0.970464 0.255713 -0.639282 0.958923 0.314880 -0.629761 0.944641 0.371191 -0.618652 0.927978 0.424350 -0.606214 0.909321 0.474168 -0.592710 0.889065 0.520554 -0.578393 0.867590 0.563503 -0.563503 0.845254 0.603077 -0.548252 0.822378 0.639396 -0.532830 0.799245 0.672617 -0.517398 0.776096 0.702922 -0.502087 0.753131 -0.715296 -0.524550 0.715296 -0.687452 -0.540141 0.736556 -0.656991 -0.555915 0.758066 -0.623737 -0.571759 0.779672 -0.587535 -0.587535 0.801184 -0.548252 -0.603077 0.822378 -0.505798 -0.618198 0.842997 -0.460132 -0.632682 0.862748 -0.411280 -0.646297 0.881314 -0.359343 -0.658795 0.898357 -0.304511 -0.669924 0.913532 -0.247068 -0.679436 0.926504 -0.187392 -0.687106 0.936962 -0.125952 -0.692737 0.944641 -0.063289 -0.696179 0.949334 0.000000 -0.697337 0.950914 0.063289 -0.696179 0.949334 0.125952 -0.692737 0.944641 0.187392 -0.687106 0.936962 0.247068 -0.679436 0.926504 0.304511 -0.669924 0.913532 0.359343 -0.658795 0.898357 0.411280 -0.646297 0.881314 0.460132 -0.632682 0.862748 0.505798 -0.618198 0.842997 0.548252 -0.603077 0.822378 0.587535 -0.587535 0.801184 0.623737 -0.571759 0.779672 0.656991 -0.555915 0.758066 0.687452 -0.540141 0.736556 -0.699633 -0.559706 0.699633 -0.671580 -0.575640 0.719550 -0.641015 -0.591706 0.739633 -0.607786 -0.607786 0.759732 -0.571759 -0.623737 0.779672 -0.532830 -0.639396 0.799245 -0.490931 -0.654574 0.818218 -0.446041 -0.669062 0.836327 -0.398203 -0.682633 0.853291 -0.347525 -0.695050 0.868813 -0.294198 -0.706074 0.882593 -0.238491 -0.715473 0.894341 -0.180758 -0.723033 0.903792 -0.121429 -0.728575 0.910719 -0.060997 -0.731958 0.914948 0.000000 -0.733096 0.916370 0.060997 -0.731958 0.914948 0.121429 -0.728575 0.910719 0.180758 -0.723033 0.903792 0.238491 -0.715473 0.894341 0.294198 -0.706074 0.882593 0.347525 -0.695050 0.868813 0.398203 -0.682633 0.853291 0.446041 -0.669062 0.836327 0.490931 -0.654574 0.818218 0.532830 -0.639396 0.799245 0.571759 -0.623737 0.779672 0.607786 -0.607786 0.759732 0.641015 -0.591706 0.739633 0.671580 -0.575640 0.719550 -0.683676 -0.592520 0.683676 -0.655467 -0.608648 0.702286 -0.624853 -0.624853 0.720985 -0.591706 -0.641015 0.739633 -0.555915 -0.656991 0.758066 -0.517398 -0.672617 0.776096 -0.476106 -0.687709 0.793510 -0.432040 -0.702064 0.810074 -0.385251 -0.715467 0.825538 -0.335857 -0.727691 0.839643 -0.284043 -0.738512 0.852130 -0.230066 -0.747715 0.862748 -0.174255 -0.755103 0.871273 -0.117001 -0.760509 0.877510 -0.058754 -0.763806 0.881314 0.000000 -0.764914 0.882593 0.058754 -0.763806 0.881314 0.117001 -0.760509 0.877510 0.174255 -0.755103 0.871273 0.230066 -0.747715 0.862748 0.284043 -0.738512 0.852130 0.335857 -0.727691 0.839643 0.385251 -0.715467 0.825538 0.432040 -0.702064 0.810074 0.476106 -0.687709 0.793510 0.517398 -0.672617 0.776096 0.555915 -0.656991 0.758066 0.591706 -0.641015 0.739633 0.624853 -0.624853 0.720985 0.655467 -0.608648 0.702286 -0.667566 -0.623062 0.667566 -0.639254 -0.639254 0.684915 -0.608648 -0.655467 0.702286 -0.575640 -0.671580 0.719550 -0.540141 -0.687452 0.736556 -0.502087 -0.702922 0.753131 -0.461451 -0.717812 0.769084 -0.418244 -0.731927 0.784208 -0.372531 -0.745063 0.798281 -0.324432 -0.757008 0.811080 -0.274126 -0.767553 0.822378 -0.221857 -0.776500 0.831964 -0.167929 -0.783667 0.839643 -0.112701 -0.788904 0.845254 -0.056578 -0.792094 0.848672 0.000000 -0.793165 0.849820 0.056578 -0.792094 0.848672 0.112701 -0.788904 0.845254 0.167929 -0.783667 0.839643 0.221857 -0.776500 0.831964 0.274126 -0.767553 0.822378 0.324432 -0.757008 0.811080 0.372531 -0.745063 0.798281 0.418244 -0.731927 0.784208 0.461451 -0.717812 0.769084 0.502087 -0.702922 0.753131 0.540141 -0.687452 0.736556 0.575640 -0.671580 0.719550 0.608648 -0.655467 0.702286 0.639254 -0.639254 0.684915 -0.667566 0.667566 0.623062 -0.639254 0.684915 0.639254 -0.608648 0.702286 0.655467 -0.575640 0.719550 0.671580 -0.540141 0.736556 0.687452 -0.502087 0.753131 0.702922 -0.461451 0.769084 0.717812 -0.418244 0.784208 0.731927 -0.372531 0.798281 0.745063 -0.324432 0.811080 0.757008 -0.274126 0.822378 0.767553 -0.221857 0.831964 0.776500 -0.167929 0.839643 0.783667 -0.112701 0.845254 0.788904 -0.056578 0.848672 0.792094 0.000000 0.849820 0.793165 0.056578 0.848672 0.792094 0.112701 0.845254 0.788904 0.167929 0.839643 0.783667 0.221857 0.831964 0.776500 0.274126 0.822378 0.767553 0.324432 0.811080 0.757008 0.372531 0.798281 0.745063 0.418244 0.784208 0.731927 0.461451 0.769084 0.717812 0.502087 0.753131 0.702922 0.540141 0.736556 0.687452 0.575640 0.719550 0.671580 0.608648 0.702286 0.655467 0.639254 0.684915 0.639254 -0.684915 0.639254 0.639254 -0.656715 0.656715 0.656715 -0.626103 0.674265 0.674265 -0.592948 0.691773 0.691773 -0.557137 0.709083 0.709083 -0.518586 0.726020 0.726020 -0.477245 0.742382 0.742382 -0.433114 0.757949 0.757949 -0.386243 0.772487 0.772487 -0.336750 0.785750 0.785750 -0.284819 0.797493 0.797493 -0.230709 0.807482 0.807482 -0.174751 0.815502 0.815502 -0.117339 0.821372 0.821372 -0.058925 0.824951 0.824951 0.000000 0.826154 0.826154 0.058925 0.824951 0.824951 0.117339 0.821372 0.821372 0.174751 0.815502 0.815502 0.230709 0.807482 0.807482 0.284819 0.797493 0.797493 0.336750 0.785750 0.785750 0.386243 0.772487 0.772487 0.433114 0.757949 0.757949 0.477245 0.742382 0.742382 0.518586 0.726020 0.726020 0.557137 0.709083 0.709083 0.592948 0.691773 0.691773 0.626103 0.674265 0.674265 0.656715 0.656715 0.656715 -0.702286 0.608648 0.655467 -0.674265 0.626103 0.674265 -0.643714 0.643714 0.693230 -0.610476 0.661349 0.712222 -0.574416 0.678855 0.731075 -0.535423 0.696051 0.749593 -0.493427 0.712728 0.767553 -0.448404 0.728656 0.784706 -0.400392 0.743585 0.800784 -0.349501 0.757252 0.815502 -0.295920 0.769392 0.828576 -0.239922 0.779746 0.839726 -0.181864 0.788079 0.848700 -0.122183 0.794187 0.855279 -0.061378 0.797918 0.859296 0.000000 0.799173 0.860647 0.061378 0.797918 0.859296 0.122183 0.794187 0.855279 0.181864 0.788079 0.848700 0.239922 0.779746 0.839726 0.295920 0.769392 0.828576 0.349501 0.757252 0.815502 0.400392 0.743585 0.800784 0.448404 0.728656 0.784706 0.493427 0.712728 0.767553 0.535423 0.696051 0.749593 0.574416 0.678855 0.731075 0.610476 0.661349 0.712222 0.643714 0.643714 0.693230 0.674265 0.626103 0.674265 -0.719550 0.575640 0.671580 -0.691773 0.592948 0.691773 -0.661349 0.610476 0.712222 -0.628099 0.628099 0.732782 -0.591858 0.645664 0.753274 -0.552489 0.662987 0.773484 -0.509892 0.679856 0.793165 -0.464021 0.696032 0.812038 -0.414897 0.711252 0.829794 -0.362618 0.725236 0.846108 -0.307374 0.737698 0.860647 -0.249453 0.748358 0.873085 -0.189240 0.756958 0.883118 -0.127213 0.763276 0.890488 -0.063928 0.767138 0.894995 0.000000 0.768438 0.896511 0.063928 0.767138 0.894995 0.127213 0.763276 0.890488 0.189240 0.756958 0.883118 0.249453 0.748358 0.873085 0.307374 0.737698 0.860647 0.362618 0.725236 0.846108 0.414897 0.711252 0.829794 0.464021 0.696032 0.812038 0.509892 0.679856 0.793165 0.552489 0.662987 0.773484 0.591858 0.645664 0.753274 0.628099 0.628099 0.732782 0.661349 0.610476 0.712222 0.691773 0.592948 0.691773 -0.736556 0.540141 0.687452 -0.709083 0.557137 0.709083 -0.678855 0.574416 0.731075 -0.645664 0.591858 0.753274 -0.609314 0.609314 0.775491 -0.569638 0.626602 0.797493 -0.526506 0.643507 0.819010 -0.479844 0.659785 0.839726 -0.429648 0.675161 0.859296 -0.376005 0.689342 0.877345 -0.319102 0.702024 0.893486 -0.259239 0.712906 0.907335 -0.196829 0.721708 0.918538 -0.132398 0.728186 0.926783 -0.066559 0.732153 0.931832 0.000000 0.733489 0.933532 0.066559 0.732153 0.931832 0.132398 0.728186 0.926783 0.196829 0.721708 0.918538 0.259239 0.712906 0.907335 0.319102 0.702024 0.893486 0.376005 0.689342 0.877345 0.429648 0.675161 0.859296 0.479844 0.659785 0.839726 0.526506 0.643507 0.819010 0.569638 0.626602 0.797493 0.609314 0.609314 0.775491 0.645664 0.591858 0.753274 0.678855 0.574416 0.731075 0.709083 0.557137 0.709083 -0.753131 0.502087 0.702922 -0.726020 0.518586 0.726020 -0.696051 0.535423 0.749593 -0.662987 0.552489 0.773484 -0.626602 0.569638 0.797493 -0.586694 0.586694 0.821372 -0.543099 0.603444 0.844821 -0.495711 0.619639 0.867494 -0.444500 0.635000 0.889000 -0.389534 0.649223 0.908912 -0.330994 0.661988 0.926783 -0.269190 0.672976 0.942167 -0.204566 0.681888 0.954643 -0.137692 0.688461 0.963846 -0.069249 0.692492 0.969489 0.000000 0.693851 0.971391 0.069249 0.692492 0.969489 0.137692 0.688461 0.963846 0.204566 0.6818